
  ___ ___ ___ _ _ _  
 |   |   |_  | | | | 
 | | | | | . | | | | 
 |__ |  _|___|_____|  24.6.0
 |___|_|             

User:   ajam@DESKTOP-5QB3SQI
Date:   Thu Sep  4 18:53:01 2025
Arch:   x86_64
Pid:    17620
CWD:    /mnt/c/Users/Aidan/Documents/GitHub/MDpractice/Aidan's Folder/TBG Project
Python: 3.11.13
gpaw:   /home/ajam/miniconda3/envs/gpaw/lib/python3.11/site-packages/gpaw
_gpaw:  /home/ajam/miniconda3/envs/gpaw/lib/python3.11/site-packages/
        _gpaw.cpython-311-x86_64-linux-gnu.so
ase:    /home/ajam/miniconda3/envs/gpaw/lib/python3.11/site-packages/ase (version 3.25.0)
numpy:  /home/ajam/miniconda3/envs/gpaw/lib/python3.11/site-packages/numpy (version 1.26.4)
scipy:  /home/ajam/miniconda3/envs/gpaw/lib/python3.11/site-packages/scipy (version 1.16.0)
libxc:  6.2.2
units:  Angstrom and eV
cores: 1
OpenMP: True
OMP_NUM_THREADS: 1

Input parameters:
  convergence: {energy: 0.0002}
  kpts: {density: 2.0,
         gamma: True}
  mode: {ecut: 400.0,
         name: pw}
  nbands: 120%
  occupations: {fixmagmom: False,
                name: fermi-dirac,
                width: 0.05}
  xc: PBE

System changes: positions, numbers, cell, pbc, initial_charges, initial_magmoms 

Initialize ...

species:
  C:
    name: Carbon
    id: 4aa54d4b901d75f77cc0ea3eec22967b
    Z: 6.0
    valence: 4
    core: 2
    charge: 0.0
    file: /home/ajam/miniconda3/envs/gpaw/share/gpaw/C.PBE.gz
    compensation charges: {type: gauss,
                           rc: 0.20,
                           lmax: 2}
    cutoffs: {filter: 1.14,
              core: 1.14}
    projectors:
      #              energy  rcut
      - 2s(2.00)   -13.751   0.635
      - 2p(2.00)    -5.284   0.635
      -  s          13.461   0.635
      -  p          21.927   0.635
      -  d           0.000   0.635
  
    # Using partial waves for C as LCAO basis

Reference energy: -30828.843464  # eV

Spin-paired calculation

Convergence criteria:
 Maximum [total energy] change in last 3 cyles: 0.0002 eV / valence electron
 Maximum integral of absolute [dens]ity change: 0.0001 electrons / valence electron
 Maximum integral of absolute [eigenst]ate change: 4e-08 eV^2 / valence electron
 Maximum number of scf [iter]ations: 333
 (Square brackets indicate name in SCF output, whereas a 'c' in
 the SCF output indicates the quantity has converged.)

Symmetries present (total): 1

  ( 1  0  0)
  ( 0  1  0)
  ( 0  0  1)

140 k-points: 10 x 14 x 1 Monkhorst-Pack grid + [1/20,1/28,0.000000]
72 k-points in the irreducible part of the Brillouin zone
       k-points in crystal coordinates                weights
   0:     0.00000000    0.00000000    0.00000000          1/140
   1:     0.00000000    0.07142857    0.00000000          2/140
   2:     0.00000000    0.14285714    0.00000000          2/140
   3:     0.00000000    0.21428571    0.00000000          2/140
   4:     0.00000000    0.28571429    0.00000000          2/140
   5:     0.00000000    0.35714286    0.00000000          2/140
   6:     0.00000000    0.42857143    0.00000000          2/140
   7:     0.00000000    0.50000000    0.00000000          1/140
   8:     0.10000000   -0.42857143    0.00000000          2/140
   9:     0.10000000   -0.35714286    0.00000000          2/140
          ...
  71:     0.50000000    0.50000000    0.00000000          1/140

Wave functions: Plane wave expansion
  Cutoff energy: 400.000 eV
  Number of coefficients (min, max): 15953, 16067
  Pulay-stress correction: 0.000000 eV/Ang^3 (de/decut=0.000000)
  Using FFTW library
  ScaLapack parameters: grid=1x1, blocksize=None
  Wavefunction extrapolation:
    Improved wavefunction reuse through dual PAW basis 

Occupation numbers: Fermi-Dirac:
  width: 0.0500  # eV
 

Eigensolver
   Davidson(niter=2) 

Densities:
  Coarse grid: 189*135*112 grid
  Fine grid: 378*270*224 grid
  Total Charge: 0.000000 

Density mixing:
  Method: separate
  Backend: pulay
  Linear mixing parameter: 0.05
  old densities: 5
  Damping of long wavelength oscillations: 50 

Hamiltonian:
  XC and Coulomb potentials evaluated on a 378*270*224 grid
  Using the PBE Exchange-Correlation functional
  External potential:
    NoExternalPotential
 

XC parameters: PBE with 2 nearest neighbor stencil

Memory estimate:
  Process memory now: 1472.35 MiB
  Calculator: 2743.89 MiB
    Density: 801.78 MiB
      Arrays: 566.86 MiB
      Localized functions: 16.90 MiB
      Mixer: 218.02 MiB
    Hamiltonian: 370.98 MiB
      Arrays: 370.64 MiB
      XC: 0.00 MiB
      Poisson: 0.00 MiB
      vbar: 0.34 MiB
    Wavefunctions: 1571.12 MiB
      Arrays psit_nG: 1270.92 MiB
      Eigensolver: 19.67 MiB
      Projections: 30.85 MiB
      Projectors: 123.01 MiB
      PW-descriptor: 126.66 MiB

Total number of cores used: 1

Number of atoms: 30
Number of atomic orbitals: 120
Number of bands in calculation: 72
Number of valence electrons: 120
Bands to converge: occupied

... initialized

Initializing position-dependent things.

Density initialized from atomic densities
Timing:                              incl.     excl.
-----------------------------------------------------------
Hamiltonian:                         3.416     0.028   0.0% |
 Atomic:                             0.201     0.001   0.0% |
  XC Correction:                     0.200     0.200   0.1% |
 Calculate atomic Hamiltonians:      0.123     0.123   0.0% |
 Communicate:                        0.000     0.000   0.0% |
 Initialize Hamiltonian:             0.000     0.000   0.0% |
 Poisson:                            0.001     0.001   0.0% |
 XC 3D grid:                         3.062     3.062   0.9% |
LCAO initialization:               299.026     0.043   0.0% |
 LCAO eigensolver:                  23.767     0.005   0.0% |
  Calculate projections:             0.042     0.042   0.0% |
  DenseAtomicCorrection:             0.115     0.115   0.0% |
  Distribute overlap matrix:         0.004     0.004   0.0% |
  Orbital Layouts:                  10.705    10.705   3.3% ||
  Potential matrix:                 10.337    10.337   3.2% ||
  Sum over cells:                    2.559     2.559   0.8% |
 LCAO to grid:                     271.011   271.011  83.6% |--------------------------------|
 Set positions (LCAO WFS):           4.204     0.284   0.1% |
  Basic WFS set positions:           0.000     0.000   0.0% |
  Basis functions set positions:     0.000     0.000   0.0% |
  P tci:                             3.376     3.376   1.0% |
  ST tci:                            0.533     0.533   0.2% |
  mktci:                             0.011     0.011   0.0% |
PWDescriptor:                        3.693     3.693   1.1% |
Set symmetry:                        0.001     0.001   0.0% |
Other:                              17.926    17.926   5.5% |-|
-----------------------------------------------------------
Total:                                       324.062 100.0%

Memory usage: 4.40 GiB
Date: Thu Sep  4 18:58:26 2025
