
  ___ ___ ___ _ _ _  
 |   |   |_  | | | | 
 | | | | | . | | | | 
 |__ |  _|___|_____|  24.6.0
 |___|_|             

User:   ajam@DESKTOP-5QB3SQI
Date:   Fri Jul 18 10:33:35 2025
Arch:   x86_64
Pid:    2783
CWD:    /mnt/c/Users/Aidan/Documents/GitHub/MDpractice/Aidan's Folder
Python: 3.11.13
gpaw:   /home/ajam/miniconda3/envs/gpaw/lib/python3.11/site-packages/gpaw
_gpaw:  /home/ajam/miniconda3/envs/gpaw/lib/python3.11/site-packages/
        _gpaw.cpython-311-x86_64-linux-gnu.so
ase:    /home/ajam/miniconda3/envs/gpaw/lib/python3.11/site-packages/ase (version 3.25.0)
numpy:  /home/ajam/miniconda3/envs/gpaw/lib/python3.11/site-packages/numpy (version 1.26.4)
scipy:  /home/ajam/miniconda3/envs/gpaw/lib/python3.11/site-packages/scipy (version 1.16.0)
libxc:  6.2.2
units:  Angstrom and eV
cores: 1
OpenMP: True
OMP_NUM_THREADS: 1

Input parameters:
  basis: sz(dzp)
  kpts: [2 2 2]
  mode: lcao
  occupations: {fixmagmom: False,
                name: fermi-dirac,
                width: 0.01}
  xc: PBE

System changes: positions, numbers, cell, pbc, initial_charges, initial_magmoms 

Initialize ...

species:
  C:
    name: Carbon
    id: 4aa54d4b901d75f77cc0ea3eec22967b
    Z: 6.0
    valence: 4
    core: 2
    charge: 0.0
    file: /home/ajam/miniconda3/envs/gpaw/share/gpaw/C.PBE.gz
    compensation charges: {type: gauss,
                           rc: 0.20,
                           lmax: 2}
    cutoffs: {filter: 1.14,
              core: 1.14}
    projectors:
      #              energy  rcut
      - 2s(2.00)   -13.751   0.635
      - 2p(2.00)    -5.284   0.635
      -  s          13.461   0.635
      -  p          21.927   0.635
      -  d           0.000   0.635
  
    # LCAO basis set for C:
    #   Name: sz(dzp)
    #   File: /home/ajam/miniconda3/envs/gpaw/share/gpaw/C.dzp.basis.gz
    #   Number of radial functions: 2
    #   Number of spherical harmonics: 4
    #     l=0, rc=5.5469 Bohr: 2s-sz confined orbital
    #     l=1, rc=6.6719 Bohr: 2p-sz confined orbital
    #   Number of RI-basis functions 0

Reference energy: -2055.256231  # eV

Spin-paired calculation

Convergence criteria:
 Maximum [total energy] change in last 3 cyles: 0.0005 eV / valence electron
 Maximum integral of absolute [dens]ity change: 0.0001 electrons / valence electron
 Maximum integral of absolute [eigenst]ate change: 4e-08 eV^2 / valence electron
 Maximum number of scf [iter]ations: 333
 (Square brackets indicate name in SCF output, whereas a 'c' in
 the SCF output indicates the quantity has converged.)

Symmetries present (total): 24

  ( 1  0  0)  ( 1  0  0)  ( 1  0 -1)  ( 1  0 -1)  ( 1 -1  0)  ( 1 -1  0)
  ( 0  1  0)  ( 0  0  1)  ( 0  1 -1)  ( 0  0 -1)  ( 0 -1  1)  ( 0 -1  0)
  ( 0  0  1)  ( 0  1  0)  ( 0  0 -1)  ( 0  1 -1)  ( 0 -1  0)  ( 0 -1  1)

  ( 0  1  0)  ( 0  1  0)  ( 0  1 -1)  ( 0  1 -1)  ( 0  0  1)  ( 0  0  1)
  ( 1  0  0)  ( 0  0  1)  ( 1  0 -1)  ( 0  0 -1)  ( 1  0  0)  ( 0  1  0)
  ( 0  0  1)  ( 1  0  0)  ( 0  0 -1)  ( 1  0 -1)  ( 0  1  0)  ( 1  0  0)

  ( 0  0 -1)  ( 0  0 -1)  ( 0 -1  1)  ( 0 -1  1)  ( 0 -1  0)  ( 0 -1  0)
  ( 1  0 -1)  ( 0  1 -1)  ( 1 -1  0)  ( 0 -1  0)  ( 1 -1  0)  ( 0 -1  1)
  ( 0  1 -1)  ( 1  0 -1)  ( 0 -1  0)  ( 1 -1  0)  ( 0 -1  1)  ( 1 -1  0)

  (-1  1  0)  (-1  1  0)  (-1  0  1)  (-1  0  1)  (-1  0  0)  (-1  0  0)
  (-1  0  1)  (-1  0  0)  (-1  1  0)  (-1  0  0)  (-1  1  0)  (-1  0  1)
  (-1  0  0)  (-1  0  1)  (-1  0  0)  (-1  1  0)  (-1  0  1)  (-1  1  0)
Note: your k-points are not as symmetric as your crystal!

8 k-points: 2 x 2 x 2 Monkhorst-Pack grid
2 k-points in the irreducible part of the Brillouin zone
       k-points in crystal coordinates                weights
   0:     0.25000000    0.25000000   -0.25000000          6/8
   1:     0.25000000    0.25000000    0.25000000          2/8

Wave functions: LCAO
  Diagonalizer: BLACS / ScaLAPACK, 1 x 1 grid with 4 x 4 blocksize
  Atomic Correction: sparse using scipy
  Data-type: complex
 

Occupation numbers: Fermi-Dirac:
  width: 0.0100  # eV
 

Eigensolver
   LCAO using direct dense diagonalizer 

Densities:
  Coarse grid: 12*12*12 grid
  Fine grid: 24*24*24 grid
  Total Charge: 0.000000 

Density mixing:
  Method: separate
  Backend: pulay
  Linear mixing parameter: 0.05
  old densities: 5
  Damping of long wavelength oscillations: 50 

Hamiltonian:
  XC and Coulomb potentials evaluated on a 24*24*24 grid
  Using the PBE Exchange-Correlation functional
  Interpolation: tri-quintic (5. degree polynomial)
  Poisson solver: FastPoissonSolver using
    Stencil: 12*3+1=37 point O(h^6) finite-difference Laplacian
    FFT axes: [0, 1, 2]
    FST axes: []
 

XC parameters: PBE with 2 nearest neighbor stencil

Memory estimate:
  Process memory now: 151.04 MiB
  Calculator: 3.80 MiB
    Density: 1.92 MiB
      Arrays: 0.34 MiB
      Localized functions: 1.45 MiB
      Mixer: 0.13 MiB
    Hamiltonian: 0.34 MiB
      Arrays: 0.22 MiB
      XC: 0.00 MiB
      Poisson: 0.00 MiB
      vbar: 0.12 MiB
    Wavefunctions: 1.54 MiB
      C [qnM]: 0.00 MiB
      S, T [2 x qmm]: 0.00 MiB
      P [aqMi]: 0.00 MiB
      BasisFunctions: 1.53 MiB
      Eigensolver: 0.00 MiB

Total number of cores used: 1

Number of atoms: 2
Number of atomic orbitals: 8
Number of bands in calculation: 8
Number of valence electrons: 8
Bands to converge: occupied

... initialized

Initializing position-dependent things.

Density initialized from atomic densities


Positions:
   0 C      0.000000    0.000000    0.000000    ( 0.0000,  0.0000,  0.0000)
   1 C      0.891750    0.891750    0.891750    ( 0.0000,  0.0000,  0.0000)

Unit cell:
           periodic     x           y           z      points  spacing
  1. axis:    yes    1.783500    1.783500    0.000000    12     0.1716
  2. axis:    yes    1.783500    0.000000    1.783500    12     0.1716
  3. axis:    yes    0.000000    1.783500    1.783500    12     0.1716

  Lengths:   2.522250   2.522250   2.522250
  Angles:   60.000000  60.000000  60.000000

Effective grid spacing dv^(1/3) = 0.1873

     iter     time        total  log10-change:
                         energy   eigst   dens
iter:   1 10:33:35   -16.348053        c
iter:   2 10:33:35   -16.355049        c -1.15
iter:   3 10:33:35   -16.422967        c -1.17
iter:   4 10:33:35   -16.422955        c -3.09
iter:   5 10:33:35   -16.422959c       c -3.82
iter:   6 10:33:35   -16.422959c       c -6.32c

Converged after 6 iterations.

Dipole moment: (-3.037577, -3.037577, -3.037577) |e|*Ang

Energy contributions relative to reference atoms: (reference = -2055.256231)

Kinetic:         +3.210122
Potential:       -3.046193
External:        +0.000000
XC:             -16.881455
Entropy (-ST):   -0.000000
Local:           +0.294567
SIC:             +0.000000
--------------------------
Free energy:    -16.422959
Extrapolated:   -16.422959

Showing all kpts
 Kpt  Band  Eigenvalues  Occupancy
  0     2      4.90499    2.00000
  0     3      6.64824    2.00000
  0     4     20.39127    0.00000
  0     5     24.97722    0.00000

  1     2      9.77931    2.00000
  1     3      9.77931    2.00000
  1     4     20.52264    0.00000
  1     5     20.52264    0.00000


Fermi level: 14.75989

Gap: 10.612 eV
Transition (v -> c):
  (s=0, k=1, n=3, [0.25, 0.25, 0.25]) -> (s=0, k=0, n=4, [0.25, 0.25, -0.25])
Direct/indirect transitions are different
Direct gap: 10.743 eV
Transition at: (s=0, k=1, n=3, [0.25, 0.25, 0.25])
Writing to data/diamond.gpw (mode='')

Timing:                              incl.     excl.
-----------------------------------------------------------
Basic WFS set positions:             0.001     0.001   0.1% |
Basis functions set positions:       0.006     0.006   0.7% |
LCAO WFS Initialize:                 0.024     0.001   0.2% |
 Hamiltonian:                        0.022     0.000   0.0% |
  Atomic:                            0.018     0.000   0.0% |
   XC Correction:                    0.018     0.018   2.1% ||
  Calculate atomic Hamiltonians:     0.000     0.000   0.0% |
  Communicate:                       0.000     0.000   0.0% |
  Hartree integrate/restrict:        0.000     0.000   0.0% |
  Initialize Hamiltonian:            0.000     0.000   0.0% |
  Poisson:                           0.001     0.000   0.0% |
   Communicate from 1D:              0.000     0.000   0.0% |
   Communicate from 2D:              0.000     0.000   0.0% |
   Communicate to 1D:                0.000     0.000   0.0% |
   Communicate to 2D:                0.000     0.000   0.0% |
   FFT 1D:                           0.000     0.000   0.0% |
   FFT 2D:                           0.000     0.000   0.0% |
  XC 3D grid:                        0.002     0.002   0.2% |
  vbar:                              0.000     0.000   0.0% |
P tci:                               0.007     0.007   0.9% |
SCF-cycle:                           0.629     0.012   1.4% ||
 Density:                            0.282     0.000   0.0% |
  Atomic density matrices:           0.002     0.002   0.3% |
  Mix:                               0.003     0.003   0.4% |
  Multipole moments:                 0.000     0.000   0.0% |
  Normalize:                         0.000     0.000   0.0% |
  Pseudo density:                    0.276     0.000   0.0% |
   Calculate density matrix:         0.002     0.002   0.3% |
   Construct density:                0.270     0.270  30.9% |-----------|
   Symmetrize density:               0.003     0.003   0.3% |
 Hamiltonian:                        0.173     0.000   0.0% |
  Atomic:                            0.127     0.001   0.2% |
   XC Correction:                    0.126     0.126  14.4% |-----|
  Calculate atomic Hamiltonians:     0.002     0.002   0.3% |
  Communicate:                       0.000     0.000   0.0% |
  Hartree integrate/restrict:        0.001     0.001   0.1% |
  Poisson:                           0.009     0.001   0.1% |
   Communicate from 1D:              0.001     0.001   0.2% |
   Communicate from 2D:              0.002     0.002   0.2% |
   Communicate to 1D:                0.001     0.001   0.1% |
   Communicate to 2D:                0.001     0.001   0.1% |
   FFT 1D:                           0.001     0.001   0.1% |
   FFT 2D:                           0.002     0.002   0.2% |
  XC 3D grid:                        0.034     0.034   3.8% |-|
  vbar:                              0.000     0.000   0.0% |
 LCAO eigensolver:                   0.162     0.001   0.1% |
  Blacs Orbital Layouts:             0.002     0.000   0.0% |
   General diagonalize:              0.001     0.001   0.2% |
   Redistribute coefs:               0.000     0.000   0.0% |
   Send coefs to domains:            0.000     0.000   0.0% |
  Calculate projections:             0.000     0.000   0.0% |
  Distribute overlap matrix:         0.001     0.000   0.0% |
   Scalapack redistribute:           0.000     0.000   0.0% |
   blocked summation:                0.000     0.000   0.0% |
  Potential matrix:                  0.146     0.146  16.7% |------|
  SparseAtomicCorrection:            0.008     0.008   0.9% |
  Sum over cells:                    0.005     0.005   0.6% |
ST tci:                              0.015     0.015   1.8% ||
Scalapack redistribute:              0.000     0.000   0.0% |
Set symmetry:                        0.003     0.003   0.3% |
TCI: Evaluate splines:               0.004     0.004   0.5% |
blocked summation:                   0.000     0.000   0.0% |
mktci:                               0.007     0.007   0.8% |
Other:                               0.177     0.177  20.2% |-------|
-----------------------------------------------------------
Total:                                         0.874 100.0%

Memory usage: 162.17 MiB
Date: Fri Jul 18 10:33:36 2025
