
  ___ ___ ___ _ _ _  
 |   |   |_  | | | | 
 | | | | | . | | | | 
 |__ |  _|___|_____|  25.1.0
 |___|_|             

User:   xavierduane-tessier@Xaviers-MacBook-Air-2.local
Date:   Thu Sep  4 19:15:22 2025
Arch:   arm64
Pid:    45079
CWD:    /Users/xavierduane-tessier/Downloads/Untitled/MDpractice
Python: 3.13.2
gpaw:   /Users/xavierduane-tessier/anaconda3/envs/MD/lib/python3.13/site-packages/gpaw
_gpaw:  /Users/xavierduane-tessier/anaconda3/envs/MD/lib/python3.13/site-packages/
        _gpaw.cpython-313-darwin.so
ase:    /Users/xavierduane-tessier/anaconda3/envs/MD/lib/python3.13/site-packages/ase (version 3.25.0)
numpy:  /Users/xavierduane-tessier/anaconda3/envs/MD/lib/python3.13/site-packages/numpy (version 2.2.4)
scipy:  /Users/xavierduane-tessier/anaconda3/envs/MD/lib/python3.13/site-packages/scipy (version 1.16.0)
libxc:  7.0.0
units:  Angstrom and eV
cores: 1
OpenMP: False
OMP_NUM_THREADS: 1

Input parameters:
  kpts: [2 2 2]
  mode: {ecut: 340.0,
         name: pw}
  xc: PBE

System changes: positions, numbers, cell, pbc, initial_charges, initial_magmoms 

Initialize ...

species:
  C:
    name: Carbon
    id: 4aa54d4b901d75f77cc0ea3eec22967b
    Z: 6.0
    valence: 4
    core: 2
    charge: 0.0
    file: /Users/xavierduane-tessier/.gpaw/gpaw-setups-24.11.0/C.PBE.gz
    compensation charges: {type: gauss,
                           rc: 0.20,
                           lmax: 2}
    cutoffs: {filter: 1.14,
              core: 1.14}
    projectors:
      #              energy  rcut
      - 2s(2.00)   -13.751   0.635
      - 2p(2.00)    -5.284   0.635
      -  s          13.461   0.635
      -  p          21.927   0.635
      -  d           0.000   0.635
  
    # Using partial waves for C as LCAO basis

Reference energy: -52409.033889  # eV

Spin-paired calculation

Convergence criteria:
 Maximum [total energy] change in last 3 cyles: 0.0005 eV / valence electron
 Maximum integral of absolute [dens]ity change: 0.0001 electrons / valence electron
 Maximum integral of absolute [eigenst]ate change: 4e-08 eV^2 / valence electron
 Maximum number of scf [iter]ations: 333
 (Square brackets indicate name in SCF output, whereas a 'c' in
 the SCF output indicates the quantity has converged.)

Symmetries present (total): 2

  ( 1  0  0)  ( 1  0  0)
  ( 0  1  0)  ( 0  1  0)
  ( 0  0  1)  ( 0  0 -1)

8 k-points: 2 x 2 x 2 Monkhorst-Pack grid
2 k-points in the irreducible part of the Brillouin zone
       k-points in crystal coordinates                weights
   0:     0.25000000   -0.25000000    0.25000000          4/8
   1:     0.25000000    0.25000000    0.25000000          4/8

Wave functions: Plane wave expansion
  Cutoff energy: 340.000 eV
  Number of coefficients (min, max): 4767, 4779
  Pulay-stress correction: 0.000000 eV/Ang^3 (de/decut=0.000000)
  Using Numpy's FFT
  ScaLapack parameters: grid=1x1, blocksize=None
  Wavefunction extrapolation:
    Improved wavefunction reuse through dual PAW basis 

Occupation numbers: Fermi-Dirac:
  width: 0.1000  # eV
 

Eigensolver
   Davidson(niter=2) 

Densities:
  Coarse grid: 40*40*21 grid
  Fine grid: 80*80*42 grid
  Total Charge: 0.000000 

Density mixing:
  Method: separate
  Backend: pulay
  Linear mixing parameter: 0.05
  old densities: 5
  Damping of long wavelength oscillations: 50 

Hamiltonian:
  XC and Coulomb potentials evaluated on a 80*80*42 grid
  Using the PBE Exchange-Correlation functional
  External potential:
    NoExternalPotential
 

XC parameters: PBE with 2 nearest neighbor stencil

Memory estimate:
  Process memory now: 174.11 MiB
  Calculator: 54.36 MiB
    Density: 14.27 MiB
      Arrays: 6.67 MiB
      Localized functions: 5.05 MiB
      Mixer: 2.56 MiB
    Hamiltonian: 4.46 MiB
      Arrays: 4.36 MiB
      XC: 0.00 MiB
      Poisson: 0.00 MiB
      vbar: 0.10 MiB
    Wavefunctions: 35.63 MiB
      Arrays psit_nG: 18.52 MiB
      Eigensolver: 12.09 MiB
      Projections: 2.57 MiB
      Projectors: 1.02 MiB
      PW-descriptor: 1.43 MiB

Total number of cores used: 1

Number of atoms: 51
Number of atomic orbitals: 204
Number of bands in calculation: 127
Number of valence electrons: 204
Bands to converge: occupied

... initialized

Initializing position-dependent things.

Density initialized from atomic densities
Creating initial wave functions:
  127 bands from LCAO basis set



Positions:
   0 C     -6.499602    0.341141    0.000000    ( 0.0000,  0.0000,  0.0000)
   1 C     -4.726983   -1.364562    0.000000    ( 0.0000,  0.0000,  0.0000)
   2 C     -3.742195   -0.341141    0.000000    ( 0.0000,  0.0000,  0.0000)
   3 C     -4.136110    1.023422    0.000000    ( 0.0000,  0.0000,  0.0000)
   4 C     -3.151322    2.046844    0.000000    ( 0.0000,  0.0000,  0.0000)
   5 C     -1.969576   -2.046844    0.000000    ( 0.0000,  0.0000,  0.0000)
   6 C     -2.363492   -0.682281    0.000000    ( 0.0000,  0.0000,  0.0000)
   7 C     -1.378703    0.341141    0.000000    ( 0.0000,  0.0000,  0.0000)
   8 C     -1.772619    1.705703    0.000000    ( 0.0000,  0.0000,  0.0000)
   9 C     -0.787831    2.729125    0.000000    ( 0.0000,  0.0000,  0.0000)
  10 C     -0.196958   -3.752547    0.000000    ( 0.0000,  0.0000,  0.0000)
  11 C     -0.590873   -2.387984    0.000000    ( 0.0000,  0.0000,  0.0000)
  12 C      0.393915   -1.364562    0.000000    ( 0.0000,  0.0000,  0.0000)
  13 C      0.000000    0.000000    0.000000    ( 0.0000,  0.0000,  0.0000)
  14 C      0.984788    1.023422    0.000000    ( 0.0000,  0.0000,  0.0000)
  15 C      0.590873    2.387984    0.000000    ( 0.0000,  0.0000,  0.0000)
  16 C      1.575661    3.411406    0.000000    ( 0.0000,  0.0000,  0.0000)
  17 C      2.166534   -3.070266    0.000000    ( 0.0000,  0.0000,  0.0000)
  18 C      1.772619   -1.705703    0.000000    ( 0.0000,  0.0000,  0.0000)
  19 C      2.757407   -0.682281    0.000000    ( 0.0000,  0.0000,  0.0000)
  20 C      2.363492    0.682281    0.000000    ( 0.0000,  0.0000,  0.0000)
  21 C      3.348280    1.705703    0.000000    ( 0.0000,  0.0000,  0.0000)
  22 C      4.136110   -1.023422    0.000000    ( 0.0000,  0.0000,  0.0000)
  23 C      5.120898   -0.000000    0.000000    ( 0.0000,  0.0000,  0.0000)
  24 C      4.726983    1.364562    0.000000    ( 0.0000,  0.0000,  0.0000)
  25 C      6.499602   -0.341141    0.000000    ( 0.0000,  0.0000,  0.0000)
  26 C     -6.190049   -0.780065    2.460000    ( 0.0000,  0.0000,  0.0000)
  27 C     -7.149583    0.340776    2.460000    ( 0.0000,  0.0000,  0.0000)
  28 C     -3.683003   -1.705891    2.460000    ( 0.0000,  0.0000,  0.0000)
  29 C     -4.642537   -0.585049    2.460000    ( 0.0000,  0.0000,  0.0000)
  30 C     -4.054559    0.730809    2.460000    ( 0.0000,  0.0000,  0.0000)
  31 C     -1.175956   -2.631716    2.460000    ( 0.0000,  0.0000,  0.0000)
  32 C     -2.135490   -1.510874    2.460000    ( 0.0000,  0.0000,  0.0000)
  33 C     -1.547512   -0.195016    2.460000    ( 0.0000,  0.0000,  0.0000)
  34 C     -2.507046    0.925825    2.460000    ( 0.0000,  0.0000,  0.0000)
  35 C     -1.919068    2.241683    2.460000    ( 0.0000,  0.0000,  0.0000)
  36 C      1.331090   -3.557542    2.460000    ( 0.0000,  0.0000,  0.0000)
  37 C      0.371556   -2.436700    2.460000    ( 0.0000,  0.0000,  0.0000)
  38 C      0.959534   -1.120842    2.460000    ( 0.0000,  0.0000,  0.0000)
  39 C      0.000000    0.000000    2.460000    ( 0.0000,  0.0000,  0.0000)
  40 C      0.587978    1.315858    2.460000    ( 0.0000,  0.0000,  0.0000)
  41 C     -0.371556    2.436700    2.460000    ( 0.0000,  0.0000,  0.0000)
  42 C      0.216422    3.752558    2.460000    ( 0.0000,  0.0000,  0.0000)
  43 C      3.466580   -2.046667    2.460000    ( 0.0000,  0.0000,  0.0000)
  44 C      2.507046   -0.925825    2.460000    ( 0.0000,  0.0000,  0.0000)
  45 C      3.095024    0.390033    2.460000    ( 0.0000,  0.0000,  0.0000)
  46 C      2.135490    1.510874    2.460000    ( 0.0000,  0.0000,  0.0000)
  47 C      2.723468    2.826732    2.460000    ( 0.0000,  0.0000,  0.0000)
  48 C      5.602071   -0.535793    2.460000    ( 0.0000,  0.0000,  0.0000)
  49 C      4.642537    0.585049    2.460000    ( 0.0000,  0.0000,  0.0000)
  50 C      7.149583   -0.340776    2.460000    ( 0.0000,  0.0000,  0.0000)

Unit cell:
           periodic     x           y           z      points  spacing
  1. axis:    yes    7.681348    4.434828    0.000000    40     0.1920
  2. axis:    yes    7.681348   -4.434828    0.000000    40     0.1920
  3. axis:    yes    0.000000    0.000000    4.920000    21     0.2343

  Lengths:   8.869656   8.869656   4.920000
  Angles:   90.000000  90.000000  60.000000

Effective grid spacing dv^(1/3) = 0.2153

     iter     time        total  log10-change:
                         energy   eigst   dens
iter:   1 19:15:33  -381.041020
iter:   2 19:15:36  -375.018236   -1.26  -0.80
iter:   3 19:15:39  -361.290890   -1.30  -0.82
iter:   4 19:15:41  -357.077038   -1.61  -0.94
iter:   5 19:15:44  -351.477843   -1.20  -1.01
iter:   6 19:15:47  -350.443818   -2.51  -1.31
iter:   7 19:15:49  -349.913474   -2.07  -1.38
iter:   8 19:15:52  -349.858372   -2.43  -1.63
iter:   9 19:15:54  -349.823034c  -3.18  -1.84
iter:  10 19:15:57  -349.780960c  -3.28  -1.91
iter:  11 19:15:59  -349.803209c  -3.42  -2.03
iter:  12 19:16:01  -349.784812c  -3.75  -2.29
iter:  13 19:16:04  -349.780340c  -3.87  -2.43
iter:  14 19:16:06  -349.778706c  -4.83  -2.60
iter:  15 19:16:09  -349.774960c  -4.37  -2.68
iter:  16 19:16:11  -349.774325c  -5.07  -2.98
iter:  17 19:16:13  -349.774118c  -5.91  -3.15
iter:  18 19:16:16  -349.774026c  -5.51  -3.22
iter:  19 19:16:18  -349.774055c  -6.22  -3.36
iter:  20 19:16:20  -349.774004c  -6.34  -3.48
iter:  21 19:16:23  -349.773962c  -6.59  -3.57
iter:  22 19:16:25  -349.774004c  -6.53  -3.61
iter:  23 19:16:27  -349.773991c  -7.38  -3.80
iter:  24 19:16:29  -349.773974c  -7.14  -3.88
iter:  25 19:16:31  -349.774005c  -7.93c -4.24c

Converged after 25 iterations.

Dipole moment: (13.937209, -2.274977, -0.000000) |e|*Ang

Energy contributions relative to reference atoms: (reference = -52409.033889)

Kinetic:       +626.058593
Potential:     -490.691058
External:        +0.000000
XC:            -486.286537
Entropy (-ST):   -0.330063
Local:           +1.310028
SIC:             +0.000000
--------------------------
Free energy:   -349.939037
Extrapolated:  -349.774005

Showing all kpts
 Kpt  Band  Eigenvalues  Occupancy
  0   100      9.70942    1.95776
  0   101     10.05903    1.16848
  0   102     10.18831    0.55673
  0   103     10.39515    0.09297

  1   100      9.74271    1.94157
  1   101      9.94256    1.63661
  1   102     10.22323    0.42771
  1   103     10.29758    0.22904


Fermi level: 10.09305

Gap: 0.129 eV
Transition (v -> c):
  (s=0, k=0, n=101, [0.25, -0.25, 0.25]) -> (s=0, k=0, n=102, [0.25, -0.25, 0.25])
No difference between direct/indirect transitions

Forces in eV/Ang:
  0 C    -0.66191    0.35294    0.00000
  1 C     0.48884   -0.72874    0.00000
  2 C     0.62088   -0.38739    0.00000
  3 C    -0.06524    0.30517    0.00000
  4 C    -0.13654    0.29194    0.00000
  5 C    -0.92726    0.06970    0.00000
  6 C    -0.65664   -0.35188    0.00000
  7 C     0.08495    0.66584    0.00000
  8 C    -0.32849   -0.77793    0.00000
  9 C     0.29135    0.73860    0.00000
 10 C     0.50872   -0.10043    0.00000
 11 C     0.31316   -0.01659    0.00000
 12 C     0.15469    0.03875    0.00000
 13 C    -0.05337   -0.08952    0.00000
 14 C     0.29713    0.18136    0.00000
 15 C     0.26846   -0.25537    0.00000
 16 C    -0.38582   -0.36169    0.00000
 17 C    -0.00810    0.67084    0.00000
 18 C    -0.42131   -0.74116    0.00000
 19 C     0.43474    0.54027    0.00000
 20 C    -0.18717   -0.31502    0.00000
 21 C     0.10970    0.52296    0.00000
 22 C     0.01687   -0.00078    0.00000
 23 C    -0.53917   -0.60030    0.00000
 24 C    -0.02333    0.71583    0.00000
 25 C     0.05215   -0.76278    0.00000
 26 C     7.49114    0.75975    0.00000
 27 C   -37.68186   -3.17980    0.00000
 28 C    13.25474    0.42528    0.00000
 29 C    12.66127   37.15023    0.00000
 30 C     4.34734    4.31570    0.00000
 31 C     0.68775    1.94422    0.00000
 32 C    -0.23667    0.13321    0.00000
 33 C     0.44293    0.88294    0.00000
 34 C    -0.06143   -1.66414    0.00000
 35 C     2.58274    4.99309    0.00000
 36 C    45.50951   40.15160    0.00000
 37 C     0.19562    8.41003    0.00000
 38 C    -1.02013    0.73356    0.00000
 39 C    -0.37245   -0.97089    0.00000
 40 C     0.70919    1.36908    0.00000
 41 C    -0.19408  -11.38433    0.00000
 42 C   110.38127  -97.48668    0.00000
 43 C    -3.66681   -1.19456    0.00000
 44 C    -0.57827   -3.33728    0.00000
 45 C     2.07949    0.62081    0.00000
 46 C    -3.47488   -2.00464    0.00000
 47 C   -14.21193  -38.24275    0.00000
 48 C     0.45277   -2.84700    0.00000
 49 C    -1.56268   -3.23191    0.00000
 50 C  -136.96848   64.02585    0.00000

System changes: positions 

Initializing position-dependent things.

Density initialized from wave functions


Positions:
   0 C     -6.500477    0.341607    0.000000    ( 0.0000,  0.0000,  0.0000)
   1 C     -4.726336   -1.365526    0.000000    ( 0.0000,  0.0000,  0.0000)
   2 C     -3.741374   -0.341653    0.000000    ( 0.0000,  0.0000,  0.0000)
   3 C     -4.136197    1.023826    0.000000    ( 0.0000,  0.0000,  0.0000)
   4 C     -3.151503    2.047230    0.000000    ( 0.0000,  0.0000,  0.0000)
   5 C     -1.970803   -2.046752    0.000000    ( 0.0000,  0.0000,  0.0000)
   6 C     -2.364360   -0.682747    0.000000    ( 0.0000,  0.0000,  0.0000)
   7 C     -1.378591    0.342021    0.000000    ( 0.0000,  0.0000,  0.0000)
   8 C     -1.773053    1.704674    0.000000    ( 0.0000,  0.0000,  0.0000)
   9 C     -0.787445    2.730102    0.000000    ( 0.0000,  0.0000,  0.0000)
  10 C     -0.196285   -3.752680    0.000000    ( 0.0000,  0.0000,  0.0000)
  11 C     -0.590459   -2.388006    0.000000    ( 0.0000,  0.0000,  0.0000)
  12 C      0.394120   -1.364511    0.000000    ( 0.0000,  0.0000,  0.0000)
  13 C     -0.000071   -0.000118    0.000000    ( 0.0000,  0.0000,  0.0000)
  14 C      0.985181    1.023662    0.000000    ( 0.0000,  0.0000,  0.0000)
  15 C      0.591228    2.387647    0.000000    ( 0.0000,  0.0000,  0.0000)
  16 C      1.575151    3.410928    0.000000    ( 0.0000,  0.0000,  0.0000)
  17 C      2.166523   -3.069378    0.000000    ( 0.0000,  0.0000,  0.0000)
  18 C      1.772061   -1.706684    0.000000    ( 0.0000,  0.0000,  0.0000)
  19 C      2.757982   -0.681567    0.000000    ( 0.0000,  0.0000,  0.0000)
  20 C      2.363244    0.681865    0.000000    ( 0.0000,  0.0000,  0.0000)
  21 C      3.348425    1.706395    0.000000    ( 0.0000,  0.0000,  0.0000)
  22 C      4.136133   -1.023423    0.000000    ( 0.0000,  0.0000,  0.0000)
  23 C      5.120185   -0.000794    0.000000    ( 0.0000,  0.0000,  0.0000)
  24 C      4.726952    1.365509    0.000000    ( 0.0000,  0.0000,  0.0000)
  25 C      6.499671   -0.342150    0.000000    ( 0.0000,  0.0000,  0.0000)
  26 C     -6.180140   -0.779060    2.460000    ( 0.0000,  0.0000,  0.0000)
  27 C     -7.199429    0.336570    2.460000    ( 0.0000,  0.0000,  0.0000)
  28 C     -3.665469   -1.705328    2.460000    ( 0.0000,  0.0000,  0.0000)
  29 C     -4.625788   -0.535907    2.460000    ( 0.0000,  0.0000,  0.0000)
  30 C     -4.048808    0.736518    2.460000    ( 0.0000,  0.0000,  0.0000)
  31 C     -1.175046   -2.629144    2.460000    ( 0.0000,  0.0000,  0.0000)
  32 C     -2.135803   -1.510698    2.460000    ( 0.0000,  0.0000,  0.0000)
  33 C     -1.546926   -0.193848    2.460000    ( 0.0000,  0.0000,  0.0000)
  34 C     -2.507128    0.923624    2.460000    ( 0.0000,  0.0000,  0.0000)
  35 C     -1.915652    2.248288    2.460000    ( 0.0000,  0.0000,  0.0000)
  36 C      1.391290   -3.504429    2.460000    ( 0.0000,  0.0000,  0.0000)
  37 C      0.371815   -2.425575    2.460000    ( 0.0000,  0.0000,  0.0000)
  38 C      0.958185   -1.119871    2.460000    ( 0.0000,  0.0000,  0.0000)
  39 C     -0.000493   -0.001284    2.460000    ( 0.0000,  0.0000,  0.0000)
  40 C      0.588916    1.317669    2.460000    ( 0.0000,  0.0000,  0.0000)
  41 C     -0.371813    2.421641    2.460000    ( 0.0000,  0.0000,  0.0000)
  42 C      0.362435    3.623602    2.460000    ( 0.0000,  0.0000,  0.0000)
  43 C      3.461730   -2.048247    2.460000    ( 0.0000,  0.0000,  0.0000)
  44 C      2.506281   -0.930240    2.460000    ( 0.0000,  0.0000,  0.0000)
  45 C      3.097775    0.390854    2.460000    ( 0.0000,  0.0000,  0.0000)
  46 C      2.130894    1.508223    2.460000    ( 0.0000,  0.0000,  0.0000)
  47 C      2.704669    2.776145    2.460000    ( 0.0000,  0.0000,  0.0000)
  48 C      5.602670   -0.539559    2.460000    ( 0.0000,  0.0000,  0.0000)
  49 C      4.640470    0.580774    2.460000    ( 0.0000,  0.0000,  0.0000)
  50 C      6.968401   -0.256083    2.460000    ( 0.0000,  0.0000,  0.0000)

Unit cell:
           periodic     x           y           z      points  spacing
  1. axis:    yes    7.681348    4.434828    0.000000    40     0.1920
  2. axis:    yes    7.681348   -4.434828    0.000000    40     0.1920
  3. axis:    yes    0.000000    0.000000    4.920000    21     0.2343

  Lengths:   8.869656   8.869656   4.920000
  Angles:   90.000000  90.000000  60.000000

Effective grid spacing dv^(1/3) = 0.2153

     iter     time        total  log10-change:
                         energy   eigst   dens
iter:   1 19:16:35  -395.021237   -0.40
iter:   2 19:16:37  -388.945962   -2.02  -1.28
iter:   3 19:16:40  -385.821513   -1.93  -1.51
iter:   4 19:16:42  -384.464922   -2.01  -1.71
iter:   5 19:16:44  -384.087173   -2.43  -1.83
iter:   6 19:16:46  -383.885465   -2.58  -1.93
iter:   7 19:16:48  -383.820223   -3.23  -2.13
iter:   8 19:16:50  -383.793677c  -3.33  -2.32
iter:   9 19:16:52  -383.785438c  -4.04  -2.51
iter:  10 19:16:55  -383.783232c  -4.61  -2.66
iter:  11 19:16:57  -383.780535c  -4.39  -2.75
iter:  12 19:16:59  -383.780477c  -5.17  -2.94
iter:  13 19:17:02  -383.780106c  -5.05  -3.01
iter:  14 19:17:04  -383.780215c  -5.47  -3.16
iter:  15 19:17:07  -383.780606c  -5.55  -3.21
iter:  16 19:17:09  -383.780629c  -6.11  -3.49
iter:  17 19:17:12  -383.780549c  -6.28  -3.71
iter:  18 19:17:14  -383.780519c  -6.97  -3.92
iter:  19 19:17:16  -383.780493c  -7.10  -4.03c
iter:  20 19:17:19  -383.780510c  -7.73c -4.21c

Converged after 20 iterations.

Dipole moment: (14.202852, -2.200982, -0.000000) |e|*Ang

Energy contributions relative to reference atoms: (reference = -52409.033889)

Kinetic:       +509.939335
Potential:     -422.076987
External:        +0.000000
XC:            -472.728252
Entropy (-ST):   -0.296368
Local:           +1.233578
SIC:             +0.000000
--------------------------
Free energy:   -383.928694
Extrapolated:  -383.780510

Showing all kpts
 Kpt  Band  Eigenvalues  Occupancy
  0   100      9.77802    1.91969
  0   101     10.00675    1.41644
  0   102     10.16461    0.66724
  0   103     10.35142    0.14352

  1   100      9.76308    1.93045
  1   101      9.95618    1.60197
  1   102     10.27441    0.28618
  1   103     10.47920    0.04217


Fermi level: 10.09542

Gap: 0.158 eV
Transition (v -> c):
  (s=0, k=0, n=101, [0.25, -0.25, 0.25]) -> (s=0, k=0, n=102, [0.25, -0.25, 0.25])
No difference between direct/indirect transitions

Forces in eV/Ang:
  0 C    -0.59760    0.15042    0.00000
  1 C     0.34055   -0.47942    0.00000
  2 C     0.47112   -0.36205    0.00000
  3 C    -0.04933    0.34404    0.00000
  4 C    -0.34939    0.22580    0.00000
  5 C    -0.94992    0.06190    0.00000
  6 C    -0.60682   -0.35981    0.00000
  7 C     0.03527    0.62308    0.00000
  8 C    -0.08887   -0.60523    0.00000
  9 C     0.06655    0.57834    0.00000
 10 C     0.36015   -0.14903    0.00000
 11 C     0.29624   -0.16691    0.00000
 12 C     0.11735    0.05607    0.00000
 13 C    -0.00655   -0.05530    0.00000
 14 C     0.21390    0.04826    0.00000
 15 C     0.33778   -0.04795    0.00000
 16 C    -0.23321   -0.34677    0.00000
 17 C     0.16104    0.62136    0.00000
 18 C    -0.19689   -0.52294    0.00000
 19 C     0.39279    0.20873    0.00000
 20 C    -0.07636   -0.15716    0.00000
 21 C     0.12484    0.40546    0.00000
 22 C    -0.13437   -0.09623    0.00000
 23 C    -0.23102   -0.54744    0.00000
 24 C     0.01498    0.75367    0.00000
 25 C     0.01997   -0.59843    0.00000
 26 C    23.13263    1.39829    0.00000
 27 C   -21.55777    3.55049    0.00000
 28 C     9.53036    1.16048    0.00000
 29 C     5.81029   20.37690    0.00000
 30 C     4.75968    5.27216    0.00000
 31 C     0.38890    2.31154    0.00000
 32 C    -0.45835    0.20755    0.00000
 33 C     0.46432    0.96477    0.00000
 34 C     0.20514   -1.15632    0.00000
 35 C     2.62104    3.67361    0.00000
 36 C    17.44271   21.01928    0.00000
 37 C     0.34323    7.36026    0.00000
 38 C    -1.21239    0.98605    0.00000
 39 C    -0.12989   -0.64265    0.00000
 40 C     0.34996    0.19724    0.00000
 41 C    -1.02935   -8.20568    0.00000
 42 C    -8.15680  -33.61705    0.00000
 43 C    -3.87104   -1.36332    0.00000
 44 C    -0.24795   -3.09807    0.00000
 45 C     2.11060    0.14982    0.00000
 46 C    -3.73150   -2.61887    0.00000
 47 C    -6.93613  -22.68276    0.00000
 48 C    -1.35904   -3.16520    0.00000
 49 C    -2.65154   -2.72607    0.00000
 50 C   -15.25288   11.07759    0.00000

System changes: positions 

Initializing position-dependent things.

Density initialized from wave functions


Positions:
   0 C     -6.503860    0.342313    0.000000    ( 0.0000,  0.0000,  0.0000)
   1 C     -4.724496   -1.368086    0.000000    ( 0.0000,  0.0000,  0.0000)
   2 C     -3.738784   -0.343713    0.000000    ( 0.0000,  0.0000,  0.0000)
   3 C     -4.136467    1.025833    0.000000    ( 0.0000,  0.0000,  0.0000)
   4 C     -3.153677    2.048475    0.000000    ( 0.0000,  0.0000,  0.0000)
   5 C     -1.976278   -2.046402    0.000000    ( 0.0000,  0.0000,  0.0000)
   6 C     -2.367807   -0.684820    0.000000    ( 0.0000,  0.0000,  0.0000)
   7 C     -1.378427    0.345568    0.000000    ( 0.0000,  0.0000,  0.0000)
   8 C     -1.773376    1.701332    0.000000    ( 0.0000,  0.0000,  0.0000)
   9 C     -0.787239    2.733299    0.000000    ( 0.0000,  0.0000,  0.0000)
  10 C     -0.194332   -3.753574    0.000000    ( 0.0000,  0.0000,  0.0000)
  11 C     -0.588770   -2.389083    0.000000    ( 0.0000,  0.0000,  0.0000)
  12 C      0.394765   -1.364176    0.000000    ( 0.0000,  0.0000,  0.0000)
  13 C     -0.000072   -0.000409    0.000000    ( 0.0000,  0.0000,  0.0000)
  14 C      0.986345    1.023835    0.000000    ( 0.0000,  0.0000,  0.0000)
  15 C      0.593223    2.387534    0.000000    ( 0.0000,  0.0000,  0.0000)
  16 C      1.573930    3.408947    0.000000    ( 0.0000,  0.0000,  0.0000)
  17 C      2.167581   -3.065847    0.000000    ( 0.0000,  0.0000,  0.0000)
  18 C      1.771106   -1.709517    0.000000    ( 0.0000,  0.0000,  0.0000)
  19 C      2.760206   -0.680627    0.000000    ( 0.0000,  0.0000,  0.0000)
  20 C      2.362892    0.681085    0.000000    ( 0.0000,  0.0000,  0.0000)
  21 C      3.349154    1.708632    0.000000    ( 0.0000,  0.0000,  0.0000)
  22 C      4.135242   -1.024051    0.000000    ( 0.0000,  0.0000,  0.0000)
  23 C      5.119099   -0.003898    0.000000    ( 0.0000,  0.0000,  0.0000)
  24 C      4.727068    1.369869    0.000000    ( 0.0000,  0.0000,  0.0000)
  25 C      6.499760   -0.345459    0.000000    ( 0.0000,  0.0000,  0.0000)
  26 C     -6.034986   -0.770527    2.460000    ( 0.0000,  0.0000,  0.0000)
  27 C     -7.310651    0.362240    2.460000    ( 0.0000,  0.0000,  0.0000)
  28 C     -3.613633   -1.698085    2.460000    ( 0.0000,  0.0000,  0.0000)
  29 C     -4.597774   -0.431977    2.460000    ( 0.0000,  0.0000,  0.0000)
  30 C     -4.021140    0.767557    2.460000    ( 0.0000,  0.0000,  0.0000)
  31 C     -1.173046   -2.615576    2.460000    ( 0.0000,  0.0000,  0.0000)
  32 C     -2.138610   -1.509448    2.460000    ( 0.0000,  0.0000,  0.0000)
  33 C     -1.544242   -0.188241    2.460000    ( 0.0000,  0.0000,  0.0000)
  34 C     -2.505740    0.917379    2.460000    ( 0.0000,  0.0000,  0.0000)
  35 C     -1.900563    2.268360    2.460000    ( 0.0000,  0.0000,  0.0000)
  36 C      1.469516   -3.398657    2.460000    ( 0.0000,  0.0000,  0.0000)
  37 C      0.373902   -2.384111    2.460000    ( 0.0000,  0.0000,  0.0000)
  38 C      0.951069   -1.114009    2.460000    ( 0.0000,  0.0000,  0.0000)
  39 C     -0.001049   -0.004719    2.460000    ( 0.0000,  0.0000,  0.0000)
  40 C      0.590645    1.317884    2.460000    ( 0.0000,  0.0000,  0.0000)
  41 C     -0.378381    2.376987    2.460000    ( 0.0000,  0.0000,  0.0000)
  42 C      0.222716    3.480498    2.460000    ( 0.0000,  0.0000,  0.0000)
  43 C      3.439330   -2.056212    2.460000    ( 0.0000,  0.0000,  0.0000)
  44 C      2.505116   -0.947852    2.460000    ( 0.0000,  0.0000,  0.0000)
  45 C      3.109925    0.391346    2.460000    ( 0.0000,  0.0000,  0.0000)
  46 C      2.109255    1.492696    2.460000    ( 0.0000,  0.0000,  0.0000)
  47 C      2.670519    2.658017    2.460000    ( 0.0000,  0.0000,  0.0000)
  48 C      5.593442   -0.557993    2.460000    ( 0.0000,  0.0000,  0.0000)
  49 C      4.624383    0.565508    2.460000    ( 0.0000,  0.0000,  0.0000)
  50 C      6.976116   -0.233917    2.460000    ( 0.0000,  0.0000,  0.0000)

Unit cell:
           periodic     x           y           z      points  spacing
  1. axis:    yes    7.681348    4.434828    0.000000    40     0.1920
  2. axis:    yes    7.681348   -4.434828    0.000000    40     0.1920
  3. axis:    yes    0.000000    0.000000    4.920000    21     0.2343

  Lengths:   8.869656   8.869656   4.920000
  Angles:   90.000000  90.000000  60.000000

Effective grid spacing dv^(1/3) = 0.2153

     iter     time        total  log10-change:
                         energy   eigst   dens
iter:   1 19:17:22  -413.553560   -0.32
iter:   2 19:17:25  -401.871307   -1.82  -1.16
iter:   3 19:17:27  -396.839468   -1.57  -1.41
iter:   4 19:17:29  -396.420538   -2.65  -1.66
iter:   5 19:17:31  -395.764055   -2.19  -1.73
iter:   6 19:17:34  -395.698796   -2.71  -2.00
iter:   7 19:17:36  -395.667500c  -3.12  -2.11
iter:   8 19:17:39  -395.621237c  -3.49  -2.16
iter:   9 19:17:41  -395.599541c  -3.65  -2.36
iter:  10 19:17:44  -395.597898c  -4.60  -2.57
iter:  11 19:17:46  -395.595337c  -4.38  -2.66
iter:  12 19:17:48  -395.594471c  -4.95  -2.90
iter:  13 19:17:51  -395.593783c  -5.41  -3.00
iter:  14 19:17:53  -395.593792c  -5.61  -3.10
iter:  15 19:17:55  -395.594050c  -5.43  -3.21
iter:  16 19:17:58  -395.594036c  -6.50  -3.44
iter:  17 19:18:00  -395.594033c  -5.97  -3.53
iter:  18 19:18:02  -395.594080c  -7.05  -3.84
iter:  19 19:18:04  -395.594004c  -6.82  -3.93
iter:  20 19:18:07  -395.593985c  -7.48c -4.13c

Converged after 20 iterations.

Dipole moment: (15.266735, -1.737118, -0.000000) |e|*Ang

Energy contributions relative to reference atoms: (reference = -52409.033889)

Kinetic:       +469.607306
Potential:     -399.384779
External:        +0.000000
XC:            -466.963526
Entropy (-ST):   -0.327032
Local:           +1.310529
SIC:             +0.000000
--------------------------
Free energy:   -395.757501
Extrapolated:  -395.593985

Showing all kpts
 Kpt  Band  Eigenvalues  Occupancy
  0   100      9.88995    1.77660
  0   101      9.95100    1.62398
  0   102     10.12946    0.84060
  0   103     10.26394    0.31781

  1   100      9.74546    1.94242
  1   101     10.05364    1.21490
  1   102     10.29312    0.24734
  1   103     10.54883    0.02164


Fermi level: 10.09730

Gap: 0.076 eV
Transition (v -> c):
  (s=0, k=1, n=101, [0.25, 0.25, 0.25]) -> (s=0, k=0, n=102, [0.25, -0.25, 0.25])
Direct/indirect transitions are different
Direct gap: 0.178 eV
Transition at: (s=0, k=0, n=101, [0.25, -0.25, 0.25])

Forces in eV/Ang:
  0 C    -0.37096    0.10580    0.00000
  1 C     0.24931   -0.31851    0.00000
  2 C     0.21341   -0.16985    0.00000
  3 C     0.06271    0.24257    0.00000
  4 C    -0.19750    0.01502    0.00000
  5 C    -0.55346    0.04719    0.00000
  6 C    -0.39127   -0.14913    0.00000
  7 C     0.18497    0.15999    0.00000
  8 C    -0.02735   -0.01241    0.00000
  9 C     0.10115    0.11024    0.00000
 10 C     0.23769   -0.19326    0.00000
 11 C     0.04333   -0.13344    0.00000
 12 C     0.04194    0.01514    0.00000
 13 C    -0.17810    0.05050    0.00000
 14 C     0.02455    0.13796    0.00000
 15 C     0.23117   -0.05224    0.00000
 16 C    -0.14226   -0.20472    0.00000
 17 C     0.06094    0.24077    0.00000
 18 C     0.06955   -0.03422    0.00000
 19 C     0.05331    0.05579    0.00000
 20 C     0.23342   -0.07477    0.00000
 21 C     0.05310    0.22481    0.00000
 22 C     0.00955    0.03016    0.00000
 23 C    -0.36642   -0.12904    0.00000
 24 C    -0.04646    0.18201    0.00000
 25 C     0.08569   -0.31549    0.00000
 26 C     3.79254    0.16352    0.00000
 27 C     2.31952    8.15450    0.00000
 28 C     2.99718    2.48651    0.00000
 29 C     0.61022    2.86933    0.00000
 30 C     6.51287    7.59874    0.00000
 31 C    -0.89741    3.70106    0.00000
 32 C    -0.07223    0.57944    0.00000
 33 C     0.31766    0.90980    0.00000
 34 C     0.83614   -0.08622    0.00000
 35 C     1.97095    2.36185    0.00000
 36 C    -3.07928    5.56491    0.00000
 37 C    -0.14557    4.05275    0.00000
 38 C    -0.70451    2.21805    0.00000
 39 C     0.31437   -0.24131    0.00000
 40 C    -0.22106   -2.13572    0.00000
 41 C    -2.58527  -12.87862    0.00000
 42 C    16.81544  -15.34465    0.00000
 43 C    -4.13656   -1.81415    0.00000
 44 C     0.27683   -2.15733    0.00000
 45 C     1.53948   -1.10400    0.00000
 46 C    -3.72222   -6.64271    0.00000
 47 C     0.92203   -4.99591    0.00000
 48 C    -0.65754   -2.65131    0.00000
 49 C    -2.65272   -2.36357    0.00000
 50 C   -20.04198   11.92280    0.00000

System changes: positions 

Initializing position-dependent things.

Density initialized from wave functions


Positions:
   0 C     -6.509755    0.343524    0.000000    ( 0.0000,  0.0000,  0.0000)
   1 C     -4.720830   -1.372645    0.000000    ( 0.0000,  0.0000,  0.0000)
   2 C     -3.735604   -0.346471    0.000000    ( 0.0000,  0.0000,  0.0000)
   3 C     -4.135487    1.029863    0.000000    ( 0.0000,  0.0000,  0.0000)
   4 C     -3.157448    2.048666    0.000000    ( 0.0000,  0.0000,  0.0000)
   5 C     -1.985401   -2.045659    0.000000    ( 0.0000,  0.0000,  0.0000)
   6 C     -2.374057   -0.687340    0.000000    ( 0.0000,  0.0000,  0.0000)
   7 C     -1.375676    0.348273    0.000000    ( 0.0000,  0.0000,  0.0000)
   8 C     -1.773250    1.701239    0.000000    ( 0.0000,  0.0000,  0.0000)
   9 C     -0.786201    2.734919    0.000000    ( 0.0000,  0.0000,  0.0000)
  10 C     -0.190835   -3.756761    0.000000    ( 0.0000,  0.0000,  0.0000)
  11 C     -0.587981   -2.391609    0.000000    ( 0.0000,  0.0000,  0.0000)
  12 C      0.395384   -1.363868    0.000000    ( 0.0000,  0.0000,  0.0000)
  13 C     -0.002708    0.000425    0.000000    ( 0.0000,  0.0000,  0.0000)
  14 C      0.986634    1.025660    0.000000    ( 0.0000,  0.0000,  0.0000)
  15 C      0.597150    2.387218    0.000000    ( 0.0000,  0.0000,  0.0000)
  16 C      1.571986    3.405633    0.000000    ( 0.0000,  0.0000,  0.0000)
  17 C      2.169032   -3.061912    0.000000    ( 0.0000,  0.0000,  0.0000)
  18 C      1.772631   -1.709788    0.000000    ( 0.0000,  0.0000,  0.0000)
  19 C      2.761140   -0.680478    0.000000    ( 0.0000,  0.0000,  0.0000)
  20 C      2.366730    0.680238    0.000000    ( 0.0000,  0.0000,  0.0000)
  21 C      3.350080    1.712033    0.000000    ( 0.0000,  0.0000,  0.0000)
  22 C      4.134939   -1.023876    0.000000    ( 0.0000,  0.0000,  0.0000)
  23 C      5.114083   -0.006059    0.000000    ( 0.0000,  0.0000,  0.0000)
  24 C      4.726455    1.373187    0.000000    ( 0.0000,  0.0000,  0.0000)
  25 C      6.501014   -0.350249    0.000000    ( 0.0000,  0.0000,  0.0000)
  26 C     -5.924758   -0.765644    2.460000    ( 0.0000,  0.0000,  0.0000)
  27 C     -7.246470    0.506866    2.460000    ( 0.0000,  0.0000,  0.0000)
  28 C     -3.571415   -1.657225    2.460000    ( 0.0000,  0.0000,  0.0000)
  29 C     -4.602242   -0.418310    2.460000    ( 0.0000,  0.0000,  0.0000)
  30 C     -3.916945    0.890154    2.460000    ( 0.0000,  0.0000,  0.0000)
  31 C     -1.187434   -2.556250    2.460000    ( 0.0000,  0.0000,  0.0000)
  32 C     -2.140529   -1.500202    2.460000    ( 0.0000,  0.0000,  0.0000)
  33 C     -1.539030   -0.173461    2.460000    ( 0.0000,  0.0000,  0.0000)
  34 C     -2.492053    0.916679    2.460000    ( 0.0000,  0.0000,  0.0000)
  35 C     -1.868600    2.303552    2.460000    ( 0.0000,  0.0000,  0.0000)
  36 C      1.361580   -3.348898    2.460000    ( 0.0000,  0.0000,  0.0000)
  37 C      0.372211   -2.320119    2.460000    ( 0.0000,  0.0000,  0.0000)
  38 C      0.939047   -1.078593    2.460000    ( 0.0000,  0.0000,  0.0000)
  39 C      0.004338   -0.007979    2.460000    ( 0.0000,  0.0000,  0.0000)
  40 C      0.586529    1.282097    2.460000    ( 0.0000,  0.0000,  0.0000)
  41 C     -0.420943    2.181569    2.460000    ( 0.0000,  0.0000,  0.0000)
  42 C      0.182407    3.384345    2.460000    ( 0.0000,  0.0000,  0.0000)
  43 C      3.372831   -2.085390    2.460000    ( 0.0000,  0.0000,  0.0000)
  44 C      2.510077   -0.982263    2.460000    ( 0.0000,  0.0000,  0.0000)
  45 C      3.134929    0.373208    2.460000    ( 0.0000,  0.0000,  0.0000)
  46 C      2.049099    1.387167    2.460000    ( 0.0000,  0.0000,  0.0000)
  47 C      2.699087    2.607227    2.460000    ( 0.0000,  0.0000,  0.0000)
  48 C      5.578029   -0.601457    2.460000    ( 0.0000,  0.0000,  0.0000)
  49 C      4.579258    0.528781    2.460000    ( 0.0000,  0.0000,  0.0000)
  50 C      6.961691   -0.175734    2.460000    ( 0.0000,  0.0000,  0.0000)

Unit cell:
           periodic     x           y           z      points  spacing
  1. axis:    yes    7.681348    4.434828    0.000000    40     0.1920
  2. axis:    yes    7.681348   -4.434828    0.000000    40     0.1920
  3. axis:    yes    0.000000    0.000000    4.920000    21     0.2343

  Lengths:   8.869656   8.869656   4.920000
  Angles:   90.000000  90.000000  60.000000

Effective grid spacing dv^(1/3) = 0.2153

     iter     time        total  log10-change:
                         energy   eigst   dens
iter:   1 19:18:10  -411.815793   -0.52
iter:   2 19:18:12  -406.230852   -2.11  -1.29
iter:   3 19:18:15  -402.208409   -1.57  -1.47
iter:   4 19:18:17  -401.719278   -2.67  -1.70
iter:   5 19:18:19  -401.302540   -2.36  -1.82
iter:   6 19:18:21  -401.239754   -2.81  -2.04
iter:   7 19:18:23  -401.220263c  -3.31  -2.20
iter:   8 19:18:26  -401.198500c  -3.92  -2.29
iter:   9 19:18:28  -401.190243c  -3.89  -2.43
iter:  10 19:18:30  -401.190192c  -4.70  -2.64
iter:  11 19:18:32  -401.189931c  -5.01  -2.76
iter:  12 19:18:35  -401.188026c  -4.48  -2.88
iter:  13 19:18:37  -401.187971c  -5.74  -3.16
iter:  14 19:18:39  -401.187919c  -5.77  -3.21
iter:  15 19:18:42  -401.188137c  -5.90  -3.32
iter:  16 19:18:44  -401.188140c  -6.10  -3.56
iter:  17 19:18:46  -401.188121c  -6.86  -3.69
iter:  18 19:18:49  -401.188045c  -6.53  -3.74
iter:  19 19:18:51  -401.188055c  -6.85  -3.97
iter:  20 19:18:53  -401.188052c  -7.76c -4.16c

Converged after 20 iterations.

Dipole moment: (17.444518, 0.398693, -0.000000) |e|*Ang

Energy contributions relative to reference atoms: (reference = -52409.033889)

Kinetic:       +477.319256
Potential:     -410.753740
External:        +0.000000
XC:            -468.958753
Entropy (-ST):   -0.297198
Local:           +1.353785
SIC:             +0.000000
--------------------------
Free energy:   -401.336650
Extrapolated:  -401.188052

Showing all kpts
 Kpt  Band  Eigenvalues  Occupancy
  0   100      9.71363    1.95576
  0   101     10.00993    1.39101
  0   102     10.08248    1.05018
  0   103     10.32935    0.17125

  1   100      9.68769    1.96570
  1   101     10.05084    1.20546
  1   102     10.31645    0.19256
  1   103     10.45992    0.04949


Fermi level: 10.09252

No gap
No difference between direct/indirect transitions

Forces in eV/Ang:
  0 C     0.26719   -0.00948    0.00000
  1 C    -0.15274    0.04453    0.00000
  2 C    -0.44550   -0.05961    0.00000
  3 C    -0.11093   -0.15665    0.00000
  4 C     0.14722    0.22942    0.00000
  5 C     0.21559    0.17416    0.00000
  6 C     0.26362   -0.00326    0.00000
  7 C    -0.31451   -0.25518    0.00000
  8 C    -0.21521    0.24521    0.00000
  9 C     0.22744   -0.09257    0.00000
 10 C    -0.08332   -0.12365    0.00000
 11 C    -0.23495    0.13885    0.00000
 12 C    -0.05885   -0.17045    0.00000
 13 C     0.11002    0.10606    0.00000
 14 C     0.19176   -0.10168    0.00000
 15 C    -0.24749    0.00587    0.00000
 16 C     0.32500    0.09176    0.00000
 17 C    -0.22578   -0.14048    0.00000
 18 C    -0.10030    0.00064    0.00000
 19 C    -0.03057    0.20598    0.00000
 20 C     0.00469   -0.00462    0.00000
 21 C     0.05590   -0.05333    0.00000
 22 C     0.09577   -0.21032    0.00000
 23 C     0.09254    0.11740    0.00000
 24 C    -0.21102   -0.31650    0.00000
 25 C    -0.15939   -0.06369    0.00000
 26 C    -0.69255   -2.39707    0.00000
 27 C   -19.87165   -8.70947    0.00000
 28 C    -0.22682    1.87765    0.00000
 29 C     3.26800    6.37093    0.00000
 30 C     1.79106    2.87290    0.00000
 31 C    -0.14176    2.21393    0.00000
 32 C     0.09440    1.30175    0.00000
 33 C     0.65679    0.26801    0.00000
 34 C     1.68636    1.90726    0.00000
 35 C     0.31307   -0.23053    0.00000
 36 C    17.47110   14.99097    0.00000
 37 C    -3.00389    3.25411    0.00000
 38 C     0.63942    1.30178    0.00000
 39 C    -0.78160   -1.13835    0.00000
 40 C     0.49257   -4.70900    0.00000
 41 C     0.37884    0.02007    0.00000
 42 C     8.65653   -6.70114    0.00000
 43 C    -3.39841   -2.66866    0.00000
 44 C    -0.10232   -0.66594    0.00000
 45 C    -0.39848   -2.34423    0.00000
 46 C     1.04557   -0.42350    0.00000
 47 C    -0.26616   -8.02981    0.00000
 48 C     0.19884   -1.75138    0.00000
 49 C    -1.47056   -1.89149    0.00000
 50 C    -5.76126    5.67818    0.00000

System changes: positions 

Initializing position-dependent things.

Density initialized from wave functions


Positions:
   0 C     -6.508971    0.343768    0.000000    ( 0.0000,  0.0000,  0.0000)
   1 C     -4.721013   -1.374318    0.000000    ( 0.0000,  0.0000,  0.0000)
   2 C     -3.741678   -0.348521    0.000000    ( 0.0000,  0.0000,  0.0000)
   3 C     -4.135784    1.030168    0.000000    ( 0.0000,  0.0000,  0.0000)
   4 C     -3.157703    2.051130    0.000000    ( 0.0000,  0.0000,  0.0000)
   5 C     -1.987231   -2.042432    0.000000    ( 0.0000,  0.0000,  0.0000)
   6 C     -2.373700   -0.688270    0.000000    ( 0.0000,  0.0000,  0.0000)
   7 C     -1.377629    0.343833    0.000000    ( 0.0000,  0.0000,  0.0000)
   8 C     -1.775771    1.708563    0.000000    ( 0.0000,  0.0000,  0.0000)
   9 C     -0.781994    2.731922    0.000000    ( 0.0000,  0.0000,  0.0000)
  10 C     -0.190243   -3.761588    0.000000    ( 0.0000,  0.0000,  0.0000)
  11 C     -0.592443   -2.391542    0.000000    ( 0.0000,  0.0000,  0.0000)
  12 C      0.394483   -1.366481    0.000000    ( 0.0000,  0.0000,  0.0000)
  13 C     -0.003985    0.003398    0.000000    ( 0.0000,  0.0000,  0.0000)
  14 C      0.988678    1.025815    0.000000    ( 0.0000,  0.0000,  0.0000)
  15 C      0.595974    2.387377    0.000000    ( 0.0000,  0.0000,  0.0000)
  16 C      1.576256    3.405207    0.000000    ( 0.0000,  0.0000,  0.0000)
  17 C      2.166401   -3.063123    0.000000    ( 0.0000,  0.0000,  0.0000)
  18 C      1.774141   -1.706930    0.000000    ( 0.0000,  0.0000,  0.0000)
  19 C      2.759467   -0.678537    0.000000    ( 0.0000,  0.0000,  0.0000)
  20 C      2.371796    0.680202    0.000000    ( 0.0000,  0.0000,  0.0000)
  21 C      3.351329    1.712745    0.000000    ( 0.0000,  0.0000,  0.0000)
  22 C      4.136734   -1.026482    0.000000    ( 0.0000,  0.0000,  0.0000)
  23 C      5.111251   -0.003564    0.000000    ( 0.0000,  0.0000,  0.0000)
  24 C      4.722386    1.367817    0.000000    ( 0.0000,  0.0000,  0.0000)
  25 C      6.499843   -0.353266    0.000000    ( 0.0000,  0.0000,  0.0000)
  26 C     -5.927563   -0.804933    2.460000    ( 0.0000,  0.0000,  0.0000)
  27 C     -7.346346    0.524030    2.460000    ( 0.0000,  0.0000,  0.0000)
  28 C     -3.583271   -1.586381    2.460000    ( 0.0000,  0.0000,  0.0000)
  29 C     -4.594962   -0.432537    2.460000    ( 0.0000,  0.0000,  0.0000)
  30 C     -3.794574    1.048348    2.460000    ( 0.0000,  0.0000,  0.0000)
  31 C     -1.208860   -2.465526    2.460000    ( 0.0000,  0.0000,  0.0000)
  32 C     -2.138836   -1.470223    2.460000    ( 0.0000,  0.0000,  0.0000)
  33 C     -1.525338   -0.157525    2.460000    ( 0.0000,  0.0000,  0.0000)
  34 C     -2.450730    0.952689    2.460000    ( 0.0000,  0.0000,  0.0000)
  35 C     -1.841471    2.318862    2.460000    ( 0.0000,  0.0000,  0.0000)
  36 C      1.387284   -3.191893    2.460000    ( 0.0000,  0.0000,  0.0000)
  37 C      0.321443   -2.237716    2.460000    ( 0.0000,  0.0000,  0.0000)
  38 C      0.941837   -1.022462    2.460000    ( 0.0000,  0.0000,  0.0000)
  39 C     -0.000673   -0.025631    2.460000    ( 0.0000,  0.0000,  0.0000)
  40 C      0.587151    1.164793    2.460000    ( 0.0000,  0.0000,  0.0000)
  41 C     -0.459332    2.003812    2.460000    ( 0.0000,  0.0000,  0.0000)
  42 C      0.225429    3.409762    2.460000    ( 0.0000,  0.0000,  0.0000)
  43 C      3.264301   -2.153395    2.460000    ( 0.0000,  0.0000,  0.0000)
  44 C      2.515931   -1.014809    2.460000    ( 0.0000,  0.0000,  0.0000)
  45 C      3.145752    0.314230    2.460000    ( 0.0000,  0.0000,  0.0000)
  46 C      2.016569    1.272200    2.460000    ( 0.0000,  0.0000,  0.0000)
  47 C      2.773557    2.564568    2.460000    ( 0.0000,  0.0000,  0.0000)
  48 C      5.569566   -0.661557    2.460000    ( 0.0000,  0.0000,  0.0000)
  49 C      4.518073    0.472462    2.460000    ( 0.0000,  0.0000,  0.0000)
  50 C      7.036712   -0.123797    2.460000    ( 0.0000,  0.0000,  0.0000)

Unit cell:
           periodic     x           y           z      points  spacing
  1. axis:    yes    7.681348    4.434828    0.000000    40     0.1920
  2. axis:    yes    7.681348   -4.434828    0.000000    40     0.1920
  3. axis:    yes    0.000000    0.000000    4.920000    21     0.2343

  Lengths:   8.869656   8.869656   4.920000
  Angles:   90.000000  90.000000  60.000000

Effective grid spacing dv^(1/3) = 0.2153

     iter     time        total  log10-change:
                         energy   eigst   dens
iter:   1 19:18:57  -409.181420   -0.71
iter:   2 19:18:59  -406.250658   -2.24  -1.36
iter:   3 19:19:02  -403.942342   -1.74  -1.50
iter:   4 19:19:04  -403.692710   -2.93  -1.73
iter:   5 19:19:06  -403.404968   -2.56  -1.87
iter:   6 19:19:09  -403.342137   -3.05  -2.10
iter:   7 19:19:11  -403.320449c  -3.71  -2.24
iter:   8 19:19:13  -403.303667c  -3.58  -2.36
iter:   9 19:19:15  -403.301681c  -4.82  -2.64
iter:  10 19:19:18  -403.299762c  -4.73  -2.70
iter:  11 19:19:20  -403.301270c  -4.77  -2.83
iter:  12 19:19:22  -403.300535c  -5.14  -3.01
iter:  13 19:19:24  -403.300425c  -5.87  -3.15
iter:  14 19:19:27  -403.300163c  -5.27  -3.20
iter:  15 19:19:29  -403.300184c  -6.03  -3.59
iter:  16 19:19:31  -403.300155c  -6.59  -3.69
iter:  17 19:19:34  -403.300133c  -6.64  -3.79
iter:  18 19:19:36  -403.300142c  -7.26  -3.85
iter:  19 19:19:39  -403.300147c  -7.46c -3.92
iter:  20 19:19:42  -403.300150c  -7.68c -3.97
iter:  21 19:19:45  -403.300161c  -7.51c -4.02c

Converged after 21 iterations.

Dipole moment: (18.592621, 4.844347, -0.000000) |e|*Ang

Energy contributions relative to reference atoms: (reference = -52409.033889)

Kinetic:       +482.427806
Potential:     -416.549699
External:        +0.000000
XC:            -470.425576
Entropy (-ST):   -0.281397
Local:           +1.388006
SIC:             +0.000000
--------------------------
Free energy:   -403.440860
Extrapolated:  -403.300161

Showing all kpts
 Kpt  Band  Eigenvalues  Occupancy
  0   100      9.68198    1.98348
  0   101      9.97163    1.73787
  0   102     10.19764    0.81779
  0   103     10.39001    0.18354

  1   100      9.62297    1.99081
  1   101     10.18005    0.90398
  1   102     10.36916    0.22139
  1   103     10.41841    0.14137


Fermi level: 10.16079

No gap
No difference between direct/indirect transitions

Forces in eV/Ang:
  0 C     0.25446   -0.21174    0.00000
  1 C    -0.37066    0.11630    0.00000
  2 C    -0.33137    0.27800    0.00000
  3 C    -0.43322   -0.51633    0.00000
  4 C     0.46494    0.25487    0.00000
  5 C     0.16757   -0.20024    0.00000
  6 C     0.04538   -0.15850    0.00000
  7 C    -0.23560    0.09961    0.00000
  8 C    -0.22335   -0.11214    0.00000
  9 C     0.02405   -0.04288    0.00000
 10 C    -0.35265    0.22781    0.00000
 11 C    -0.19744   -0.20400    0.00000
 12 C     0.19513   -0.13214    0.00000
 13 C     0.26731    0.05123    0.00000
 14 C     0.10096   -0.24554    0.00000
 15 C    -0.04947   -0.06246    0.00000
 16 C     0.18839    0.04641    0.00000
 17 C     0.03982    0.02885    0.00000
 18 C    -0.44595   -0.08613    0.00000
 19 C     0.29112    0.03883    0.00000
 20 C    -0.29129    0.15573    0.00000
 21 C    -0.13735   -0.31162    0.00000
 22 C    -0.23518   -0.05709    0.00000
 23 C     0.44536   -0.12514    0.00000
 24 C     0.02575    0.03279    0.00000
 25 C    -0.30435    0.19319    0.00000
 26 C     0.66986   -1.34233    0.00000
 27 C     8.37314    7.80535    0.00000
 28 C     1.14464    1.86518    0.00000
 29 C     2.51426    6.60760    0.00000
 30 C    -2.34178   -1.42074    0.00000
 31 C     0.81306    0.57307    0.00000
 32 C    -0.87253    2.23669    0.00000
 33 C     0.08204   -0.06988    0.00000
 34 C     2.79071    2.23752    0.00000
 35 C     0.44186   -1.14960    0.00000
 36 C     0.02856    2.87454    0.00000
 37 C    -1.32681    1.05388    0.00000
 38 C     1.04563   -0.45347    0.00000
 39 C    -2.02564   -3.18995    0.00000
 40 C     1.29309    0.54325    0.00000
 41 C     3.26336    9.42795    0.00000
 42 C     8.69624  -11.93646    0.00000
 43 C    -3.57914   -2.34557    0.00000
 44 C    -1.27070    0.75445    0.00000
 45 C    -2.24570   -2.11137    0.00000
 46 C     3.98683    3.48555    0.00000
 47 C    -4.66264   -9.47284    0.00000
 48 C     1.43735    0.23159    0.00000
 49 C     1.63656   -2.16134    0.00000
 50 C   -18.79075   -3.10607    0.00000

System changes: positions 

Initializing position-dependent things.

Density initialized from wave functions


Positions:
   0 C     -6.501170    0.339614    0.000000    ( 0.0000,  0.0000,  0.0000)
   1 C     -4.729239   -1.372036    0.000000    ( 0.0000,  0.0000,  0.0000)
   2 C     -3.756289   -0.345002    0.000000    ( 0.0000,  0.0000,  0.0000)
   3 C     -4.143696    1.020254    0.000000    ( 0.0000,  0.0000,  0.0000)
   4 C     -3.148958    2.057994    0.000000    ( 0.0000,  0.0000,  0.0000)
   5 C     -1.982809   -2.042258    0.000000    ( 0.0000,  0.0000,  0.0000)
   6 C     -2.369852   -0.690924    0.000000    ( 0.0000,  0.0000,  0.0000)
   7 C     -1.384929    0.338639    0.000000    ( 0.0000,  0.0000,  0.0000)
   8 C     -1.782128    1.716387    0.000000    ( 0.0000,  0.0000,  0.0000)
   9 C     -0.777301    2.726238    0.000000    ( 0.0000,  0.0000,  0.0000)
  10 C     -0.197202   -3.762457    0.000000    ( 0.0000,  0.0000,  0.0000)
  11 C     -0.601714   -2.394200    0.000000    ( 0.0000,  0.0000,  0.0000)
  12 C      0.396330   -1.371976    0.000000    ( 0.0000,  0.0000,  0.0000)
  13 C     -0.000091    0.007683    0.000000    ( 0.0000,  0.0000,  0.0000)
  14 C      0.992389    1.021013    0.000000    ( 0.0000,  0.0000,  0.0000)
  15 C      0.592270    2.386999    0.000000    ( 0.0000,  0.0000,  0.0000)
  16 C      1.585659    3.406893    0.000000    ( 0.0000,  0.0000,  0.0000)
  17 C      2.163580   -3.066034    0.000000    ( 0.0000,  0.0000,  0.0000)
  18 C      1.768505   -1.703977    0.000000    ( 0.0000,  0.0000,  0.0000)
  19 C      2.761621   -0.676358    0.000000    ( 0.0000,  0.0000,  0.0000)
  20 C      2.372010    0.683478    0.000000    ( 0.0000,  0.0000,  0.0000)
  21 C      3.350111    1.706660    0.000000    ( 0.0000,  0.0000,  0.0000)
  22 C      4.134895   -1.030684    0.000000    ( 0.0000,  0.0000,  0.0000)
  23 C      5.117692   -0.001364    0.000000    ( 0.0000,  0.0000,  0.0000)
  24 C      4.718181    1.360182    0.000000    ( 0.0000,  0.0000,  0.0000)
  25 C      6.492828   -0.351240    0.000000    ( 0.0000,  0.0000,  0.0000)
  26 C     -5.952195   -0.876675    2.460000    ( 0.0000,  0.0000,  0.0000)
  27 C     -7.295719    0.639042    2.460000    ( 0.0000,  0.0000,  0.0000)
  28 C     -3.607205   -1.482571    2.460000    ( 0.0000,  0.0000,  0.0000)
  29 C     -4.559535   -0.390606    2.460000    ( 0.0000,  0.0000,  0.0000)
  30 C     -3.724081    1.172018    2.460000    ( 0.0000,  0.0000,  0.0000)
  31 C     -1.217219   -2.367269    2.460000    ( 0.0000,  0.0000,  0.0000)
  32 C     -2.150857   -1.399403    2.460000    ( 0.0000,  0.0000,  0.0000)
  33 C     -1.509597   -0.145056    2.460000    ( 0.0000,  0.0000,  0.0000)
  34 C     -2.357996    1.035967    2.460000    ( 0.0000,  0.0000,  0.0000)
  35 C     -1.814048    2.300875    2.460000    ( 0.0000,  0.0000,  0.0000)
  36 C      1.388155   -3.023519    2.460000    ( 0.0000,  0.0000,  0.0000)
  37 C      0.238531   -2.150298    2.460000    ( 0.0000,  0.0000,  0.0000)
  38 C      0.967548   -0.974439    2.460000    ( 0.0000,  0.0000,  0.0000)
  39 C     -0.042092   -0.098547    2.460000    ( 0.0000,  0.0000,  0.0000)
  40 C      0.610102    1.042317    2.460000    ( 0.0000,  0.0000,  0.0000)
  41 C     -0.437234    2.024575    2.460000    ( 0.0000,  0.0000,  0.0000)
  42 C      0.251097    3.407521    2.460000    ( 0.0000,  0.0000,  0.0000)
  43 C      3.097948   -2.264420    2.460000    ( 0.0000,  0.0000,  0.0000)
  44 C      2.500710   -1.026782    2.460000    ( 0.0000,  0.0000,  0.0000)
  45 C      3.110835    0.212498    2.460000    ( 0.0000,  0.0000,  0.0000)
  46 C      2.067143    1.227805    2.460000    ( 0.0000,  0.0000,  0.0000)
  47 C      2.794189    2.417888    2.460000    ( 0.0000,  0.0000,  0.0000)
  48 C      5.586964   -0.713445    2.460000    ( 0.0000,  0.0000,  0.0000)
  49 C      4.487375    0.383426    2.460000    ( 0.0000,  0.0000,  0.0000)
  50 C      7.028270   -0.230266    2.460000    ( 0.0000,  0.0000,  0.0000)

Unit cell:
           periodic     x           y           z      points  spacing
  1. axis:    yes    7.681348    4.434828    0.000000    40     0.1920
  2. axis:    yes    7.681348   -4.434828    0.000000    40     0.1920
  3. axis:    yes    0.000000    0.000000    4.920000    21     0.2343

  Lengths:   8.869656   8.869656   4.920000
  Angles:   90.000000  90.000000  60.000000

Effective grid spacing dv^(1/3) = 0.2153

     iter     time        total  log10-change:
                         energy   eigst   dens
iter:   1 19:19:49  -412.234124   -0.63
iter:   2 19:19:52  -409.559294   -2.18  -1.39
iter:   3 19:19:55  -407.216985   -1.71  -1.52
iter:   4 19:19:58  -406.978093   -2.89  -1.72
iter:   5 19:20:01  -406.737625   -2.62  -1.87
iter:   6 19:20:04  -406.706630   -3.18  -2.09
iter:   7 19:20:07  -406.681134c  -3.70  -2.19
iter:   8 19:20:10  -406.670572c  -3.75  -2.39
iter:   9 19:20:12  -406.669302c  -4.96  -2.66
iter:  10 19:20:15  -406.667310c  -4.67  -2.71
iter:  11 19:20:17  -406.668197c  -5.00  -2.89
iter:  12 19:20:19  -406.668078c  -5.58  -3.10
iter:  13 19:20:22  -406.667998c  -5.68  -3.19
iter:  14 19:20:24  -406.667725c  -5.77  -3.29
iter:  15 19:20:27  -406.667631c  -6.25  -3.55
iter:  16 19:20:29  -406.667643c  -6.91  -3.68
iter:  17 19:20:31  -406.667728c  -6.34  -3.74
iter:  18 19:20:33  -406.667727c  -7.12  -4.11c
iter:  19 19:20:36  -406.667722c  -7.66c -4.21c

Converged after 19 iterations.

Dipole moment: (19.039582, 9.940264, -0.000000) |e|*Ang

Energy contributions relative to reference atoms: (reference = -52409.033889)

Kinetic:       +488.227569
Potential:     -423.177038
External:        +0.000000
XC:            -472.934464
Entropy (-ST):   -0.307616
Local:           +1.370019
SIC:             +0.000000
--------------------------
Free energy:   -406.821530
Extrapolated:  -406.667722

Showing all kpts
 Kpt  Band  Eigenvalues  Occupancy
  0   100      9.71680    1.96287
  0   101      9.96568    1.62878
  0   102     10.18018    0.67869
  0   103     10.26277    0.36722

  1   100      9.60400    1.98783
  1   101     10.11725    0.98157
  1   102     10.29794    0.27321
  1   103     10.39606    0.11197


Fermi level: 10.11356

No gap
No difference between direct/indirect transitions

Forces in eV/Ang:
  0 C    -0.27645   -0.05103    0.00000
  1 C     0.37687   -0.37583    0.00000
  2 C     0.43551   -0.16422    0.00000
  3 C     0.10949    0.20432    0.00000
  4 C    -0.39843   -0.38361    0.00000
  5 C    -0.33077   -0.28313    0.00000
  6 C    -0.53506   -0.03280    0.00000
  7 C     0.21622    0.51689    0.00000
  8 C     0.32785   -0.65554    0.00000
  9 C    -0.38441    0.35310    0.00000
 10 C     0.15284    0.07410    0.00000
 11 C     0.25053   -0.12291    0.00000
 12 C    -0.22867    0.31777    0.00000
 13 C    -0.15793   -0.44842    0.00000
 14 C    -0.08023    0.19175    0.00000
 15 C     0.37318   -0.17336    0.00000
 16 C    -0.60671   -0.08557    0.00000
 17 C     0.08786   -0.05717    0.00000
 18 C    -0.11013   -0.30759    0.00000
 19 C     0.14424    0.01005    0.00000
 20 C    -0.25523   -0.35414    0.00000
 21 C    -0.18052    0.23763    0.00000
 22 C    -0.03339    0.27568    0.00000
 23 C    -0.16185   -0.38700    0.00000
 24 C     0.29666    0.36003    0.00000
 25 C     0.22606   -0.16811    0.00000
 26 C     5.22430   -1.27680    0.00000
 27 C    -1.73446    1.47933    0.00000
 28 C     0.36380    1.56028    0.00000
 29 C     0.62903    5.05229    0.00000
 30 C    -1.59088   -5.38326    0.00000
 31 C     1.30801   -1.12683    0.00000
 32 C    -2.30517    1.19459    0.00000
 33 C    -0.64437    1.20569    0.00000
 34 C    -1.10520   -0.82975    0.00000
 35 C     2.36696    1.09390    0.00000
 36 C     2.26528    0.18460    0.00000
 37 C    -1.04664   -0.59488    0.00000
 38 C     1.14552   -3.51097    0.00000
 39 C    -1.45821    0.56290    0.00000
 40 C    -1.14444    6.56191    0.00000
 41 C     6.95788    5.01512    0.00000
 42 C    10.24239  -14.01212    0.00000
 43 C    -6.10206   -0.34205    0.00000
 44 C    -2.46699   -0.20810    0.00000
 45 C     0.15093   -0.19683    0.00000
 46 C     2.19440    1.00114    0.00000
 47 C    -5.85198   -3.50528    0.00000
 48 C     0.63056    1.48994    0.00000
 49 C     2.41596   -2.24992    0.00000
 50 C    -9.70146    8.36077    0.00000

System changes: positions 

Initializing position-dependent things.

Density initialized from wave functions


Positions:
   0 C     -6.500206    0.336712    0.000000    ( 0.0000,  0.0000,  0.0000)
   1 C     -4.728054   -1.375795    0.000000    ( 0.0000,  0.0000,  0.0000)
   2 C     -3.759361   -0.345947    0.000000    ( 0.0000,  0.0000,  0.0000)
   3 C     -4.145205    1.018629    0.000000    ( 0.0000,  0.0000,  0.0000)
   4 C     -3.150857    2.055426    0.000000    ( 0.0000,  0.0000,  0.0000)
   5 C     -1.984188   -2.045245    0.000000    ( 0.0000,  0.0000,  0.0000)
   6 C     -2.374394   -0.691914    0.000000    ( 0.0000,  0.0000,  0.0000)
   7 C     -1.385679    0.340937    0.000000    ( 0.0000,  0.0000,  0.0000)
   8 C     -1.780304    1.714178    0.000000    ( 0.0000,  0.0000,  0.0000)
   9 C     -0.779931    2.726539    0.000000    ( 0.0000,  0.0000,  0.0000)
  10 C     -0.198554   -3.763210    0.000000    ( 0.0000,  0.0000,  0.0000)
  11 C     -0.604108   -2.396685    0.000000    ( 0.0000,  0.0000,  0.0000)
  12 C      0.392961   -1.370586    0.000000    ( 0.0000,  0.0000,  0.0000)
  13 C     -0.001191    0.004022    0.000000    ( 0.0000,  0.0000,  0.0000)
  14 C      0.992915    1.021669    0.000000    ( 0.0000,  0.0000,  0.0000)
  15 C      0.594995    2.384727    0.000000    ( 0.0000,  0.0000,  0.0000)
  16 C      1.582871    3.407065    0.000000    ( 0.0000,  0.0000,  0.0000)
  17 C      2.162484   -3.070113    0.000000    ( 0.0000,  0.0000,  0.0000)
  18 C      1.765888   -1.704854    0.000000    ( 0.0000,  0.0000,  0.0000)
  19 C      2.762980   -0.675414    0.000000    ( 0.0000,  0.0000,  0.0000)
  20 C      2.370420    0.680064    0.000000    ( 0.0000,  0.0000,  0.0000)
  21 C      3.347178    1.706902    0.000000    ( 0.0000,  0.0000,  0.0000)
  22 C      4.134539   -1.029231    0.000000    ( 0.0000,  0.0000,  0.0000)
  23 C      5.117826   -0.003877    0.000000    ( 0.0000,  0.0000,  0.0000)
  24 C      4.719333    1.358621    0.000000    ( 0.0000,  0.0000,  0.0000)
  25 C      6.492812   -0.352419    0.000000    ( 0.0000,  0.0000,  0.0000)
  26 C     -5.921590   -0.941874    2.460000    ( 0.0000,  0.0000,  0.0000)
  27 C     -7.283286    0.703342    2.460000    ( 0.0000,  0.0000,  0.0000)
  28 C     -3.643004   -1.394578    2.460000    ( 0.0000,  0.0000,  0.0000)
  29 C     -4.553533   -0.368766    2.460000    ( 0.0000,  0.0000,  0.0000)
  30 C     -3.686646    1.186939    2.460000    ( 0.0000,  0.0000,  0.0000)
  31 C     -1.210053   -2.317125    2.460000    ( 0.0000,  0.0000,  0.0000)
  32 C     -2.188120   -1.343007    2.460000    ( 0.0000,  0.0000,  0.0000)
  33 C     -1.508714   -0.118759    2.460000    ( 0.0000,  0.0000,  0.0000)
  34 C     -2.322568    1.073723    2.460000    ( 0.0000,  0.0000,  0.0000)
  35 C     -1.764839    2.304785    2.460000    ( 0.0000,  0.0000,  0.0000)
  36 C      1.369934   -2.961236    2.460000    ( 0.0000,  0.0000,  0.0000)
  37 C      0.169730   -2.112314    2.460000    ( 0.0000,  0.0000,  0.0000)
  38 C      0.998679   -0.988960    2.460000    ( 0.0000,  0.0000,  0.0000)
  39 C     -0.081559   -0.123717    2.460000    ( 0.0000,  0.0000,  0.0000)
  40 C      0.601428    1.044552    2.460000    ( 0.0000,  0.0000,  0.0000)
  41 C     -0.337430    2.068189    2.460000    ( 0.0000,  0.0000,  0.0000)
  42 C      0.304791    3.363573    2.460000    ( 0.0000,  0.0000,  0.0000)
  43 C      2.911087   -2.335714    2.460000    ( 0.0000,  0.0000,  0.0000)
  44 C      2.461287   -1.038804    2.460000    ( 0.0000,  0.0000,  0.0000)
  45 C      3.097972    0.146408    2.460000    ( 0.0000,  0.0000,  0.0000)
  46 C      2.117356    1.190227    2.460000    ( 0.0000,  0.0000,  0.0000)
  47 C      2.767292    2.360910    2.460000    ( 0.0000,  0.0000,  0.0000)
  48 C      5.601197   -0.727002    2.460000    ( 0.0000,  0.0000,  0.0000)
  49 C      4.493390    0.301349    2.460000    ( 0.0000,  0.0000,  0.0000)
  50 C      7.093449   -0.217968    2.460000    ( 0.0000,  0.0000,  0.0000)

Unit cell:
           periodic     x           y           z      points  spacing
  1. axis:    yes    7.681348    4.434828    0.000000    40     0.1920
  2. axis:    yes    7.681348   -4.434828    0.000000    40     0.1920
  3. axis:    yes    0.000000    0.000000    4.920000    21     0.2343

  Lengths:   8.869656   8.869656   4.920000
  Angles:   90.000000  90.000000  60.000000

Effective grid spacing dv^(1/3) = 0.2153

     iter     time        total  log10-change:
                         energy   eigst   dens
iter:   1 19:20:39  -411.331871   -1.05
iter:   2 19:20:42  -410.752024   -2.60  -1.64
iter:   3 19:20:44  -410.036908   -2.25  -1.73
iter:   4 19:20:46  -409.877555   -3.05  -1.94
iter:   5 19:20:49  -409.816753   -3.01  -2.12
iter:   6 19:20:51  -409.797896c  -3.77  -2.27
iter:   7 19:20:54  -409.786799c  -3.52  -2.39
iter:   8 19:20:56  -409.782862c  -4.48  -2.65
iter:   9 19:20:58  -409.781933c  -5.18  -2.79
iter:  10 19:21:01  -409.781210c  -4.98  -2.87
iter:  11 19:21:03  -409.781436c  -4.95  -3.01
iter:  12 19:21:05  -409.781240c  -6.01  -3.24
iter:  13 19:21:07  -409.781118c  -5.64  -3.31
iter:  14 19:21:10  -409.781140c  -6.35  -3.57
iter:  15 19:21:12  -409.781121c  -6.61  -3.78
iter:  16 19:21:14  -409.781117c  -7.46c -3.97
iter:  17 19:21:17  -409.781113c  -7.25  -4.05c
iter:  18 19:21:19  -409.781108c  -7.56c -4.25c

Converged after 18 iterations.

Dipole moment: (16.544196, 10.955799, -0.000000) |e|*Ang

Energy contributions relative to reference atoms: (reference = -52409.033889)

Kinetic:       +495.251241
Potential:     -430.578133
External:        +0.000000
XC:            -475.654390
Entropy (-ST):   -0.306717
Local:           +1.353533
SIC:             +0.000000
--------------------------
Free energy:   -409.934466
Extrapolated:  -409.781108

Showing all kpts
 Kpt  Band  Eigenvalues  Occupancy
  0   100      9.66308    1.96709
  0   101      9.99470    1.36889
  0   102     10.09766    0.87306
  0   103     10.29760    0.18990

  1   100      9.56118    1.98800
  1   101     10.03142    1.20081
  1   102     10.23680    0.32312
  1   103     10.38313    0.08540


Fermi level: 10.07213

Gap: 0.066 eV
Transition (v -> c):
  (s=0, k=1, n=101, [0.25, 0.25, 0.25]) -> (s=0, k=0, n=102, [0.25, -0.25, 0.25])
Direct/indirect transitions are different
Direct gap: 0.103 eV
Transition at: (s=0, k=0, n=101, [0.25, -0.25, 0.25])

Forces in eV/Ang:
  0 C    -0.27535    0.03530    0.00000
  1 C     0.24585   -0.15431    0.00000
  2 C     0.60301   -0.27713    0.00000
  3 C     0.10588    0.29773    0.00000
  4 C    -0.29004   -0.15574    0.00000
  5 C    -0.33873   -0.13626    0.00000
  6 C    -0.28156    0.13372    0.00000
  7 C     0.14523    0.20441    0.00000
  8 C     0.13926   -0.44100    0.00000
  9 C    -0.06325    0.21744    0.00000
 10 C     0.17302    0.09773    0.00000
 11 C     0.26651   -0.04272    0.00000
 12 C    -0.11078    0.13545    0.00000
 13 C    -0.16823   -0.16744    0.00000
 14 C    -0.15748   -0.08730    0.00000
 15 C    -0.00183   -0.01212    0.00000
 16 C    -0.37106   -0.14682    0.00000
 17 C     0.11814    0.00727    0.00000
 18 C    -0.02896   -0.22392    0.00000
 19 C    -0.14379   -0.06995    0.00000
 20 C    -0.13934   -0.28170    0.00000
 21 C     0.13366    0.01810    0.00000
 22 C     0.10980   -0.04384    0.00000
 23 C    -0.15574   -0.23875    0.00000
 24 C     0.05264    0.36482    0.00000
 25 C     0.24874   -0.13472    0.00000
 26 C     4.85674   -1.12038    0.00000
 27 C    -2.75349    1.21952    0.00000
 28 C     1.00215   -1.17843    0.00000
 29 C     1.01760    6.95646    0.00000
 30 C    -5.85570   -3.87689    0.00000
 31 C    -1.17637   -0.56269    0.00000
 32 C    -1.52642   -0.29189    0.00000
 33 C    -1.16467    0.80797    0.00000
 34 C    -1.89787   -1.09923    0.00000
 35 C     3.40678    1.95442    0.00000
 36 C     5.68173   -0.00848    0.00000
 37 C    -0.08604   -1.74884    0.00000
 38 C    -2.00556   -1.46195    0.00000
 39 C     1.89706    2.45780    0.00000
 40 C    -0.04993    3.57809    0.00000
 41 C     3.54426    3.50968    0.00000
 42 C     7.79150  -10.08469    0.00000
 43 C    -3.13870   -2.37445    0.00000
 44 C    -2.46115   -1.57648    0.00000
 45 C     2.15858    1.04468    0.00000
 46 C    -0.26199   -0.38114    0.00000
 47 C    -4.15008   -0.68528    0.00000
 48 C     1.58166    1.53062    0.00000
 49 C     1.79182   -1.72041    0.00000
 50 C    -8.03262    6.19524    0.00000

System changes: positions 

Initializing position-dependent things.

Density initialized from wave functions


Positions:
   0 C     -6.500677    0.334937    0.000000    ( 0.0000,  0.0000,  0.0000)
   1 C     -4.727386   -1.377249    0.000000    ( 0.0000,  0.0000,  0.0000)
   2 C     -3.756610   -0.349684    0.000000    ( 0.0000,  0.0000,  0.0000)
   3 C     -4.146234    1.019735    0.000000    ( 0.0000,  0.0000,  0.0000)
   4 C     -3.152794    2.054730    0.000000    ( 0.0000,  0.0000,  0.0000)
   5 C     -1.987361   -2.047422    0.000000    ( 0.0000,  0.0000,  0.0000)
   6 C     -2.377189   -0.689750    0.000000    ( 0.0000,  0.0000,  0.0000)
   7 C     -1.386337    0.340207    0.000000    ( 0.0000,  0.0000,  0.0000)
   8 C     -1.779995    1.712293    0.000000    ( 0.0000,  0.0000,  0.0000)
   9 C     -0.778900    2.726014    0.000000    ( 0.0000,  0.0000,  0.0000)
  10 C     -0.198926   -3.762771    0.000000    ( 0.0000,  0.0000,  0.0000)
  11 C     -0.604781   -2.398570    0.000000    ( 0.0000,  0.0000,  0.0000)
  12 C      0.390566   -1.370763    0.000000    ( 0.0000,  0.0000,  0.0000)
  13 C     -0.003447    0.003075    0.000000    ( 0.0000,  0.0000,  0.0000)
  14 C      0.991182    1.017981    0.000000    ( 0.0000,  0.0000,  0.0000)
  15 C      0.592737    2.384535    0.000000    ( 0.0000,  0.0000,  0.0000)
  16 C      1.580922    3.405645    0.000000    ( 0.0000,  0.0000,  0.0000)
  17 C      2.162668   -3.073537    0.000000    ( 0.0000,  0.0000,  0.0000)
  18 C      1.764177   -1.705649    0.000000    ( 0.0000,  0.0000,  0.0000)
  19 C      2.759545   -0.676306    0.000000    ( 0.0000,  0.0000,  0.0000)
  20 C      2.369484    0.676084    0.000000    ( 0.0000,  0.0000,  0.0000)
  21 C      3.349056    1.703940    0.000000    ( 0.0000,  0.0000,  0.0000)
  22 C      4.136616   -1.032109    0.000000    ( 0.0000,  0.0000,  0.0000)
  23 C      5.117375   -0.005712    0.000000    ( 0.0000,  0.0000,  0.0000)
  24 C      4.717727    1.359184    0.000000    ( 0.0000,  0.0000,  0.0000)
  25 C      6.494586   -0.353466    0.000000    ( 0.0000,  0.0000,  0.0000)
  26 C     -5.877268   -1.011817    2.460000    ( 0.0000,  0.0000,  0.0000)
  27 C     -7.260252    0.785702    2.460000    ( 0.0000,  0.0000,  0.0000)
  28 C     -3.669790   -1.350323    2.460000    ( 0.0000,  0.0000,  0.0000)
  29 C     -4.542404   -0.296348    2.460000    ( 0.0000,  0.0000,  0.0000)
  30 C     -3.746183    1.193898    2.460000    ( 0.0000,  0.0000,  0.0000)
  31 C     -1.243333   -2.264499    2.460000    ( 0.0000,  0.0000,  0.0000)
  32 C     -2.224906   -1.307669    2.460000    ( 0.0000,  0.0000,  0.0000)
  33 C     -1.522682   -0.093312    2.460000    ( 0.0000,  0.0000,  0.0000)
  34 C     -2.308769    1.101942    2.460000    ( 0.0000,  0.0000,  0.0000)
  35 C     -1.681686    2.329695    2.460000    ( 0.0000,  0.0000,  0.0000)
  36 C      1.398996   -2.928712    2.460000    ( 0.0000,  0.0000,  0.0000)
  37 C      0.114375   -2.106501    2.460000    ( 0.0000,  0.0000,  0.0000)
  38 C      0.976167   -0.986437    2.460000    ( 0.0000,  0.0000,  0.0000)
  39 C     -0.065015   -0.109115    2.460000    ( 0.0000,  0.0000,  0.0000)
  40 C      0.607036    1.032186    2.460000    ( 0.0000,  0.0000,  0.0000)
  41 C     -0.259567    2.121323    2.460000    ( 0.0000,  0.0000,  0.0000)
  42 C      0.362598    3.338127    2.460000    ( 0.0000,  0.0000,  0.0000)
  43 C      2.745596   -2.448021    2.460000    ( 0.0000,  0.0000,  0.0000)
  44 C      2.406226   -1.076345    2.460000    ( 0.0000,  0.0000,  0.0000)
  45 C      3.123158    0.103146    2.460000    ( 0.0000,  0.0000,  0.0000)
  46 C      2.136275    1.133640    2.460000    ( 0.0000,  0.0000,  0.0000)
  47 C      2.741350    2.355303    2.460000    ( 0.0000,  0.0000,  0.0000)
  48 C      5.639103   -0.727732    2.460000    ( 0.0000,  0.0000,  0.0000)
  49 C      4.505175    0.216851    2.460000    ( 0.0000,  0.0000,  0.0000)
  50 C      7.150558   -0.216358    2.460000    ( 0.0000,  0.0000,  0.0000)

Unit cell:
           periodic     x           y           z      points  spacing
  1. axis:    yes    7.681348    4.434828    0.000000    40     0.1920
  2. axis:    yes    7.681348   -4.434828    0.000000    40     0.1920
  3. axis:    yes    0.000000    0.000000    4.920000    21     0.2343

  Lengths:   8.869656   8.869656   4.920000
  Angles:   90.000000  90.000000  60.000000

Effective grid spacing dv^(1/3) = 0.2153

     iter     time        total  log10-change:
                         energy   eigst   dens
iter:   1 19:21:22  -414.146017   -1.09
iter:   2 19:21:24  -413.484631   -2.71  -1.66
iter:   3 19:21:27  -412.600943   -2.08  -1.75
iter:   4 19:21:29  -412.476205   -3.17  -1.98
iter:   5 19:21:31  -412.410648   -3.25  -2.17
iter:   6 19:21:33  -412.389382c  -3.44  -2.30
iter:   7 19:21:36  -412.387613c  -3.61  -2.50
iter:   8 19:21:38  -412.378875c  -4.25  -2.61
iter:   9 19:21:40  -412.378509c  -5.07  -2.82
iter:  10 19:21:43  -412.378296c  -5.03  -2.90
iter:  11 19:21:45  -412.378377c  -5.30  -3.09
iter:  12 19:21:48  -412.378277c  -5.82  -3.23
iter:  13 19:21:50  -412.378248c  -6.70  -3.35
iter:  14 19:21:53  -412.378196c  -5.75  -3.41
iter:  15 19:21:56  -412.378179c  -6.44  -3.70
iter:  16 19:21:58  -412.378170c  -6.99  -3.85
iter:  17 19:22:01  -412.378108c  -6.90  -3.98
iter:  18 19:22:03  -412.378084c  -7.63c -4.24c

Converged after 18 iterations.

Dipole moment: (12.387011, 9.572518, -0.000000) |e|*Ang

Energy contributions relative to reference atoms: (reference = -52409.033889)

Kinetic:       +504.119027
Potential:     -439.225487
External:        +0.000000
XC:            -478.481998
Entropy (-ST):   -0.286411
Local:           +1.353579
SIC:             +0.000000
--------------------------
Free energy:   -412.521289
Extrapolated:  -412.378084

Showing all kpts
 Kpt  Band  Eigenvalues  Occupancy
  0   100      9.67055    1.95808
  0   101      9.93465    1.53809
  0   102     10.09306    0.81167
  0   103     10.36183    0.08882

  1   100      9.57446    1.98375
  1   101     10.01075    1.21745
  1   102     10.22289    0.31434
  1   103     10.37285    0.07992


Fermi level: 10.05494

Gap: 0.082 eV
Transition (v -> c):
  (s=0, k=1, n=101, [0.25, 0.25, 0.25]) -> (s=0, k=0, n=102, [0.25, -0.25, 0.25])
Direct/indirect transitions are different
Direct gap: 0.158 eV
Transition at: (s=0, k=0, n=101, [0.25, -0.25, 0.25])

Forces in eV/Ang:
  0 C    -0.11253    0.05365    0.00000
  1 C     0.25826   -0.20048    0.00000
  2 C     0.36950   -0.05503    0.00000
  3 C     0.11364    0.12508    0.00000
  4 C    -0.04897   -0.21690    0.00000
  5 C    -0.10075   -0.01369    0.00000
  6 C    -0.05713   -0.06564    0.00000
  7 C     0.17030    0.22075    0.00000
  8 C     0.08674   -0.28446    0.00000
  9 C    -0.25743    0.14310    0.00000
 10 C     0.14408    0.20143    0.00000
 11 C     0.14140   -0.04448    0.00000
 12 C    -0.03983    0.02582    0.00000
 13 C    -0.20546   -0.21411    0.00000
 14 C    -0.12689    0.12111    0.00000
 15 C     0.14636   -0.21330    0.00000
 16 C    -0.25138   -0.04997    0.00000
 17 C     0.04789    0.05993    0.00000
 18 C    -0.10010   -0.30040    0.00000
 19 C     0.10266   -0.24804    0.00000
 20 C    -0.12223   -0.08024    0.00000
 21 C    -0.05281    0.06843    0.00000
 22 C    -0.12975    0.13209    0.00000
 23 C    -0.10564   -0.13332    0.00000
 24 C     0.11844    0.12615    0.00000
 25 C     0.16159   -0.12539    0.00000
 26 C     3.54276    1.26010    0.00000
 27 C    -5.80519   -0.85251    0.00000
 28 C     0.88060   -1.40525    0.00000
 29 C     1.79799    5.70118    0.00000
 30 C    -4.02464   -4.90820    0.00000
 31 C    -1.54443   -1.50112    0.00000
 32 C    -1.37481   -0.11894    0.00000
 33 C    -0.63624    0.92180    0.00000
 34 C    -3.13629    0.40677    0.00000
 35 C     1.21586    0.07073    0.00000
 36 C     5.35587   -0.77093    0.00000
 37 C     0.42776   -1.91449    0.00000
 38 C    -1.74490   -2.56936    0.00000
 39 C    -0.70647    2.07640    0.00000
 40 C     1.30331    4.50555    0.00000
 41 C     1.74569   -0.17306    0.00000
 42 C     6.88451   -6.10334    0.00000
 43 C     0.16691    2.18612    0.00000
 44 C    -0.81620   -1.21712    0.00000
 45 C     0.68823   -0.70160    0.00000
 46 C     0.02378    1.24841    0.00000
 47 C    -2.84053   -2.27848    0.00000
 48 C     2.17117    1.54566    0.00000
 49 C     2.10233   -0.87228    0.00000
 50 C    -5.82530    6.41148    0.00000

System changes: positions 

Initializing position-dependent things.

Density initialized from wave functions


Positions:
   0 C     -6.496774    0.332784    0.000000    ( 0.0000,  0.0000,  0.0000)
   1 C     -4.723986   -1.382502    0.000000    ( 0.0000,  0.0000,  0.0000)
   2 C     -3.752928   -0.347937    0.000000    ( 0.0000,  0.0000,  0.0000)
   3 C     -4.147807    1.015811    0.000000    ( 0.0000,  0.0000,  0.0000)
   4 C     -3.144850    2.049707    0.000000    ( 0.0000,  0.0000,  0.0000)
   5 C     -1.985701   -2.047450    0.000000    ( 0.0000,  0.0000,  0.0000)
   6 C     -2.373110   -0.693929    0.000000    ( 0.0000,  0.0000,  0.0000)
   7 C     -1.384089    0.341722    0.000000    ( 0.0000,  0.0000,  0.0000)
   8 C     -1.781895    1.710967    0.000000    ( 0.0000,  0.0000,  0.0000)
   9 C     -0.786926    2.723014    0.000000    ( 0.0000,  0.0000,  0.0000)
  10 C     -0.199849   -3.752549    0.000000    ( 0.0000,  0.0000,  0.0000)
  11 C     -0.608673   -2.404103    0.000000    ( 0.0000,  0.0000,  0.0000)
  12 C      0.390660   -1.376671    0.000000    ( 0.0000,  0.0000,  0.0000)
  13 C     -0.011848   -0.001566    0.000000    ( 0.0000,  0.0000,  0.0000)
  14 C      0.985803    1.017867    0.000000    ( 0.0000,  0.0000,  0.0000)
  15 C      0.594263    2.373886    0.000000    ( 0.0000,  0.0000,  0.0000)
  16 C      1.579653    3.405254    0.000000    ( 0.0000,  0.0000,  0.0000)
  17 C      2.162665   -3.075622    0.000000    ( 0.0000,  0.0000,  0.0000)
  18 C      1.755558   -1.714405    0.000000    ( 0.0000,  0.0000,  0.0000)
  19 C      2.763429   -0.690939    0.000000    ( 0.0000,  0.0000,  0.0000)
  20 C      2.366191    0.676969    0.000000    ( 0.0000,  0.0000,  0.0000)
  21 C      3.346196    1.697861    0.000000    ( 0.0000,  0.0000,  0.0000)
  22 C      4.128439   -1.030611    0.000000    ( 0.0000,  0.0000,  0.0000)
  23 C      5.118807   -0.006798    0.000000    ( 0.0000,  0.0000,  0.0000)
  24 C      4.718107    1.354314    0.000000    ( 0.0000,  0.0000,  0.0000)
  25 C      6.496459   -0.355286    0.000000    ( 0.0000,  0.0000,  0.0000)
  26 C     -5.786483   -1.022852    2.460000    ( 0.0000,  0.0000,  0.0000)
  27 C     -7.274658    0.938077    2.460000    ( 0.0000,  0.0000,  0.0000)
  28 C     -3.702047   -1.321155    2.460000    ( 0.0000,  0.0000,  0.0000)
  29 C     -4.465836   -0.111585    2.460000    ( 0.0000,  0.0000,  0.0000)
  30 C     -3.909196    1.082888    2.460000    ( 0.0000,  0.0000,  0.0000)
  31 C     -1.365497   -2.226953    2.460000    ( 0.0000,  0.0000,  0.0000)
  32 C     -2.308665   -1.243420    2.460000    ( 0.0000,  0.0000,  0.0000)
  33 C     -1.545965   -0.030738    2.460000    ( 0.0000,  0.0000,  0.0000)
  34 C     -2.382696    1.223371    2.460000    ( 0.0000,  0.0000,  0.0000)
  35 C     -1.581156    2.305013    2.460000    ( 0.0000,  0.0000,  0.0000)
  36 C      1.446172   -2.987040    2.460000    ( 0.0000,  0.0000,  0.0000)
  37 C      0.053498   -2.155286    2.460000    ( 0.0000,  0.0000,  0.0000)
  38 C      0.888556   -1.055699    2.460000    ( 0.0000,  0.0000,  0.0000)
  39 C     -0.124579   -0.056886    2.460000    ( 0.0000,  0.0000,  0.0000)
  40 C      0.707336    1.114657    2.460000    ( 0.0000,  0.0000,  0.0000)
  41 C     -0.174065    2.103617    2.460000    ( 0.0000,  0.0000,  0.0000)
  42 C      0.490528    3.391123    2.460000    ( 0.0000,  0.0000,  0.0000)
  43 C      2.590488   -2.462490    2.460000    ( 0.0000,  0.0000,  0.0000)
  44 C      2.348684   -1.158324    2.460000    ( 0.0000,  0.0000,  0.0000)
  45 C      3.131903   -0.049677    2.460000    ( 0.0000,  0.0000,  0.0000)
  46 C      2.176084    1.115217    2.460000    ( 0.0000,  0.0000,  0.0000)
  47 C      2.698585    2.274108    2.460000    ( 0.0000,  0.0000,  0.0000)
  48 C      5.784802   -0.693927    2.460000    ( 0.0000,  0.0000,  0.0000)
  49 C      4.582955    0.078702    2.460000    ( 0.0000,  0.0000,  0.0000)
  50 C      7.243624   -0.187970    2.460000    ( 0.0000,  0.0000,  0.0000)

Unit cell:
           periodic     x           y           z      points  spacing
  1. axis:    yes    7.681348    4.434828    0.000000    40     0.1920
  2. axis:    yes    7.681348   -4.434828    0.000000    40     0.1920
  3. axis:    yes    0.000000    0.000000    4.920000    21     0.2343

  Lengths:   8.869656   8.869656   4.920000
  Angles:   90.000000  90.000000  60.000000

Effective grid spacing dv^(1/3) = 0.2153

     iter     time        total  log10-change:
                         energy   eigst   dens
iter:   1 19:22:07  -418.722808   -0.63
iter:   2 19:22:09  -416.409208   -2.24  -1.40
iter:   3 19:22:12  -414.007186   -1.75  -1.50
iter:   4 19:22:14  -413.723117   -2.95  -1.73
iter:   5 19:22:16  -413.499773   -2.72  -1.85
iter:   6 19:22:19  -413.387320   -2.80  -1.98
iter:   7 19:22:21  -413.367963   -3.75  -2.22
iter:   8 19:22:23  -413.356198c  -3.63  -2.34
iter:   9 19:22:25  -413.355170c  -4.61  -2.57
iter:  10 19:22:27  -413.353971c  -4.52  -2.66
iter:  11 19:22:30  -413.353848c  -5.27  -2.82
iter:  12 19:22:32  -413.352864c  -4.90  -2.89
iter:  13 19:22:34  -413.353059c  -5.78  -3.15
iter:  14 19:22:37  -413.353246c  -5.64  -3.25
iter:  15 19:22:39  -413.353242c  -6.30  -3.51
iter:  16 19:22:41  -413.353208c  -6.22  -3.63
iter:  17 19:22:43  -413.353197c  -7.27  -3.88
iter:  18 19:22:46  -413.353141c  -7.22  -3.95
iter:  19 19:22:48  -413.353118c  -7.70c -4.09c

Converged after 19 iterations.

Dipole moment: (16.379106, 2.528079, -0.000000) |e|*Ang

Energy contributions relative to reference atoms: (reference = -52409.033889)

Kinetic:       +528.479672
Potential:     -459.748077
External:        +0.000000
XC:            -483.293530
Entropy (-ST):   -0.310938
Local:           +1.364286
SIC:             +0.000000
--------------------------
Free energy:   -413.508588
Extrapolated:  -413.353118

Showing all kpts
 Kpt  Band  Eigenvalues  Occupancy
  0   100      9.54687    1.97919
  0   101      9.87678    1.55665
  0   102     10.11163    0.50229
  0   103     10.16347    0.33291

  1   100      9.60785    1.96204
  1   101      9.97205    1.15051
  1   102     10.12927    0.43888
  1   103     10.32634    0.07541


Fermi level: 10.00238

Gap: 0.140 eV
Transition (v -> c):
  (s=0, k=1, n=101, [0.25, 0.25, 0.25]) -> (s=0, k=0, n=102, [0.25, -0.25, 0.25])
Direct/indirect transitions are different
Direct gap: 0.157 eV
Transition at: (s=0, k=1, n=101, [0.25, 0.25, 0.25])

Forces in eV/Ang:
  0 C    -0.35519    0.28764    0.00000
  1 C     0.24376    0.33336    0.00000
  2 C     0.49326   -0.55400    0.00000
  3 C     0.46925    0.53455    0.00000
  4 C    -0.99431   -0.01964    0.00000
  5 C    -0.32292   -0.45038    0.00000
  6 C    -0.40496    0.52264    0.00000
  7 C    -0.09399    0.07282    0.00000
  8 C     0.47885   -0.49401    0.00000
  9 C     0.35922    0.10356    0.00000
 10 C     0.21876   -0.69861    0.00000
 11 C     0.44427    0.49737    0.00000
 12 C    -0.51700   -0.01528    0.00000
 13 C     0.41186    0.01665    0.00000
 14 C    -0.00065   -0.44958    0.00000
 15 C    -0.14095    0.58855    0.00000
 16 C    -0.23441   -0.33596    0.00000
 17 C     0.03114   -0.24607    0.00000
 18 C     0.41050    0.09474    0.00000
 19 C    -0.73534    0.29415    0.00000
 20 C    -0.04753   -0.50605    0.00000
 21 C     0.34496   -0.09372    0.00000
 22 C     0.68732   -0.40515    0.00000
 23 C    -0.34391   -0.13000    0.00000
 24 C    -0.02320    0.39929    0.00000
 25 C     0.25127    0.06064    0.00000
 26 C     1.89734    2.92051    0.00000
 27 C   -12.01693   -7.00032    0.00000
 28 C    -0.86890   -0.11925    0.00000
 29 C    -1.35787   -6.85164    0.00000
 30 C     1.49072    3.88238    0.00000
 31 C    -0.07547   -1.97676    0.00000
 32 C     0.64964   -0.12378    0.00000
 33 C    -2.98280    1.81205    0.00000
 34 C    -2.19599   -4.08062    0.00000
 35 C    -0.46063    2.95798    0.00000
 36 C     5.61436   -0.73530    0.00000
 37 C    -3.07316    0.79797    0.00000
 38 C    -2.48533    1.08900    0.00000
 39 C     4.11222    2.00400    0.00000
 40 C    -1.75481   -3.59330    0.00000
[...]
  21 C      3.352390    1.695768    0.000000    ( 0.0000,  0.0000,  0.0000)
  22 C      4.130453   -1.035799    0.000000    ( 0.0000,  0.0000,  0.0000)
  23 C      5.117441   -0.014518    0.000000    ( 0.0000,  0.0000,  0.0000)
  24 C      4.715479    1.360597    0.000000    ( 0.0000,  0.0000,  0.0000)
  25 C      6.497154   -0.356544    0.000000    ( 0.0000,  0.0000,  0.0000)
  26 C     -5.681922   -0.883934    2.460000    ( 0.0000,  0.0000,  0.0000)
  27 C     -7.373009    0.969981    2.460000    ( 0.0000,  0.0000,  0.0000)
  28 C     -3.633508   -1.332491    2.460000    ( 0.0000,  0.0000,  0.0000)
  29 C     -4.509758   -0.226889    2.460000    ( 0.0000,  0.0000,  0.0000)
  30 C     -3.898444    1.080415    2.460000    ( 0.0000,  0.0000,  0.0000)
  31 C     -1.466849   -2.291163    2.460000    ( 0.0000,  0.0000,  0.0000)
  32 C     -2.322479   -1.216285    2.460000    ( 0.0000,  0.0000,  0.0000)
  33 C     -1.657438    0.059524    2.460000    ( 0.0000,  0.0000,  0.0000)
  34 C     -2.460354    1.174750    2.460000    ( 0.0000,  0.0000,  0.0000)
  35 C     -1.589022    2.346347    2.460000    ( 0.0000,  0.0000,  0.0000)
  36 C      1.563219   -3.176453    2.460000    ( 0.0000,  0.0000,  0.0000)
  37 C     -0.091130   -2.157001    2.460000    ( 0.0000,  0.0000,  0.0000)
  38 C      0.766377   -1.101807    2.460000    ( 0.0000,  0.0000,  0.0000)
  39 C     -0.101217   -0.001875    2.460000    ( 0.0000,  0.0000,  0.0000)
  40 C      0.714342    1.133157    2.460000    ( 0.0000,  0.0000,  0.0000)
  41 C     -0.079521    2.184184    2.460000    ( 0.0000,  0.0000,  0.0000)
  42 C      0.494997    3.379630    2.460000    ( 0.0000,  0.0000,  0.0000)
  43 C      2.707974   -2.453393    2.460000    ( 0.0000,  0.0000,  0.0000)
  44 C      2.226468   -1.116121    2.460000    ( 0.0000,  0.0000,  0.0000)
  45 C      3.186108   -0.008867    2.460000    ( 0.0000,  0.0000,  0.0000)
  46 C      2.273418    1.120162    2.460000    ( 0.0000,  0.0000,  0.0000)
  47 C      2.720762    2.324166    2.460000    ( 0.0000,  0.0000,  0.0000)
  48 C      5.902734   -0.669740    2.460000    ( 0.0000,  0.0000,  0.0000)
  49 C      4.636011    0.021527    2.460000    ( 0.0000,  0.0000,  0.0000)
  50 C      7.177421   -0.215420    2.460000    ( 0.0000,  0.0000,  0.0000)

Unit cell:
           periodic     x           y           z      points  spacing
  1. axis:    yes    7.681348    4.434828    0.000000    40     0.1920
  2. axis:    yes    7.681348   -4.434828    0.000000    40     0.1920
  3. axis:    yes    0.000000    0.000000    4.920000    21     0.2343

  Lengths:   8.869656   8.869656   4.920000
  Angles:   90.000000  90.000000  60.000000

Effective grid spacing dv^(1/3) = 0.2153

     iter     time        total  log10-change:
                         energy   eigst   dens
iter:   1 19:25:20  -421.785418   -0.73
iter:   2 19:25:23  -418.444166   -2.19  -1.40
iter:   3 19:25:26  -417.050979   -2.22  -1.57
iter:   4 19:25:28  -416.498729   -2.62  -1.73
iter:   5 19:25:31  -416.217808   -2.48  -1.88
iter:   6 19:25:33  -416.151918   -2.93  -2.04
iter:   7 19:25:35  -416.115568   -3.55  -2.21
iter:   8 19:25:38  -416.101697c  -4.33  -2.34
iter:   9 19:25:40  -416.091358c  -3.68  -2.46
iter:  10 19:25:42  -416.091574c  -4.90  -2.74
iter:  11 19:25:45  -416.091166c  -5.55  -2.80
iter:  12 19:25:47  -416.090734c  -4.84  -2.88
iter:  13 19:25:49  -416.090530c  -5.53  -3.11
iter:  14 19:25:52  -416.090351c  -5.76  -3.19
iter:  15 19:25:54  -416.090180c  -5.68  -3.28
iter:  16 19:25:56  -416.090304c  -6.13  -3.58
iter:  17 19:25:59  -416.090312c  -7.49c -3.75
iter:  18 19:26:01  -416.090311c  -6.82  -3.81
iter:  19 19:26:04  -416.090323c  -7.00  -3.98
iter:  20 19:26:07  -416.090297c  -7.47c -4.20c

Converged after 20 iterations.

Dipole moment: (16.326113, 0.925848, -0.000000) |e|*Ang

Energy contributions relative to reference atoms: (reference = -52409.033889)

Kinetic:       +514.546591
Potential:     -451.112127
External:        +0.000000
XC:            -480.758854
Entropy (-ST):   -0.294393
Local:           +1.381289
SIC:             +0.000000
--------------------------
Free energy:   -416.237493
Extrapolated:  -416.090297

Showing all kpts
 Kpt  Band  Eigenvalues  Occupancy
  0   100      9.52103    1.99176
  0   101      9.92442    1.62120
  0   102     10.14955    0.62118
  0   103     10.30087    0.18050

  1   100      9.60874    1.98031
  1   101     10.03493    1.17266
  1   102     10.25419    0.27322
  1   103     10.36669    0.09771


Fermi level: 10.06981

Gap: 0.115 eV
Transition (v -> c):
  (s=0, k=1, n=101, [0.25, 0.25, 0.25]) -> (s=0, k=0, n=102, [0.25, -0.25, 0.25])
Direct/indirect transitions are different
Direct gap: 0.219 eV
Transition at: (s=0, k=1, n=101, [0.25, 0.25, 0.25])

Forces in eV/Ang:
  0 C     0.64142    0.27051    0.00000
  1 C    -0.01476    0.24700    0.00000
  2 C    -0.33903   -0.39493    0.00000
  3 C     0.09083   -0.26572    0.00000
  4 C     0.33458    0.46931    0.00000
  5 C     0.51024   -0.19169    0.00000
  6 C     0.61086    0.50917    0.00000
  7 C    -0.57254   -0.70335    0.00000
  8 C    -0.08603    0.55637    0.00000
  9 C    -0.07519   -0.20473    0.00000
 10 C    -0.27692   -0.37656    0.00000
 11 C    -0.30718    0.42972    0.00000
 12 C    -0.13014   -0.09660    0.00000
 13 C     0.31580   -0.09617    0.00000
 14 C     0.36114   -0.27570    0.00000
 15 C     0.08513    0.31078    0.00000
 16 C     0.13896   -0.40417    0.00000
 17 C    -0.63357   -0.21591    0.00000
 18 C     0.33141   -0.15283    0.00000
 19 C    -0.03040   -0.17292    0.00000
 20 C     0.01471    0.41763    0.00000
 21 C    -0.19796   -0.26715    0.00000
 22 C     0.24551   -0.44277    0.00000
 23 C    -0.16899    0.23991    0.00000
 24 C     0.10108   -0.40044    0.00000
 25 C     0.18609    0.11463    0.00000
 26 C    -5.99183   -2.50869    0.00000
 27 C    -1.94824   -1.39106    0.00000
 28 C    -4.94494   -0.84209    0.00000
 29 C     5.26813    3.79514    0.00000
 30 C     0.31565   -0.17067    0.00000
 31 C    -0.86176    0.02767    0.00000
 32 C     2.68431   -0.35187    0.00000
 33 C     2.40015   -2.39437    0.00000
 34 C     0.74386    2.51517    0.00000
 35 C     0.34492   -0.62722    0.00000
 36 C     1.40036   -1.90286    0.00000
 37 C    -2.48742   -1.26949    0.00000
 38 C    -0.12426    2.42380    0.00000
 39 C    -0.19830    1.26389    0.00000
 40 C     1.26511   -3.70711    0.00000
 41 C    -2.59919   -0.44239    0.00000
 42 C     5.48150   -0.71977    0.00000
 43 C    -0.94396    1.16088    0.00000
 44 C     1.23623   -0.86273    0.00000
 45 C     0.28478   -0.37283    0.00000
 46 C    -2.95193   -2.04865    0.00000
 47 C     3.46579    3.21932    0.00000
 48 C    -4.55495   -2.25097    0.00000
 49 C    -1.15439    1.16374    0.00000
 50 C     2.74106    7.39476    0.00000

System changes: positions 

Initializing position-dependent things.

Density initialized from wave functions


Positions:
   0 C     -6.503242    0.332058    0.000000    ( 0.0000,  0.0000,  0.0000)
   1 C     -4.721738   -1.381012    0.000000    ( 0.0000,  0.0000,  0.0000)
   2 C     -3.745279   -0.351461    0.000000    ( 0.0000,  0.0000,  0.0000)
   3 C     -4.142942    1.020187    0.000000    ( 0.0000,  0.0000,  0.0000)
   4 C     -3.155244    2.046148    0.000000    ( 0.0000,  0.0000,  0.0000)
   5 C     -1.988934   -2.053096    0.000000    ( 0.0000,  0.0000,  0.0000)
   6 C     -2.377715   -0.693571    0.000000    ( 0.0000,  0.0000,  0.0000)
   7 C     -1.379654    0.343209    0.000000    ( 0.0000,  0.0000,  0.0000)
   8 C     -1.776694    1.702633    0.000000    ( 0.0000,  0.0000,  0.0000)
   9 C     -0.782948    2.725745    0.000000    ( 0.0000,  0.0000,  0.0000)
  10 C     -0.195911   -3.758809    0.000000    ( 0.0000,  0.0000,  0.0000)
  11 C     -0.601911   -2.403137    0.000000    ( 0.0000,  0.0000,  0.0000)
  12 C      0.385139   -1.378026    0.000000    ( 0.0000,  0.0000,  0.0000)
  13 C     -0.008864   -0.003977    0.000000    ( 0.0000,  0.0000,  0.0000)
  14 C      0.984275    1.014076    0.000000    ( 0.0000,  0.0000,  0.0000)
  15 C      0.593824    2.377500    0.000000    ( 0.0000,  0.0000,  0.0000)
  16 C      1.578505    3.402370    0.000000    ( 0.0000,  0.0000,  0.0000)
  17 C      2.167405   -3.079012    0.000000    ( 0.0000,  0.0000,  0.0000)
  18 C      1.757956   -1.715573    0.000000    ( 0.0000,  0.0000,  0.0000)
  19 C      2.755308   -0.690522    0.000000    ( 0.0000,  0.0000,  0.0000)
  20 C      2.364572    0.666645    0.000000    ( 0.0000,  0.0000,  0.0000)
  21 C      3.350382    1.695946    0.000000    ( 0.0000,  0.0000,  0.0000)
  22 C      4.132045   -1.035125    0.000000    ( 0.0000,  0.0000,  0.0000)
  23 C      5.117227   -0.011313    0.000000    ( 0.0000,  0.0000,  0.0000)
  24 C      4.717105    1.359415    0.000000    ( 0.0000,  0.0000,  0.0000)
  25 C      6.497392   -0.355014    0.000000    ( 0.0000,  0.0000,  0.0000)
  26 C     -5.724150   -0.926810    2.460000    ( 0.0000,  0.0000,  0.0000)
  27 C     -7.343696    0.945055    2.460000    ( 0.0000,  0.0000,  0.0000)
  28 C     -3.673811   -1.323475    2.460000    ( 0.0000,  0.0000,  0.0000)
  29 C     -4.484834   -0.201002    2.460000    ( 0.0000,  0.0000,  0.0000)
  30 C     -3.897375    1.076005    2.460000    ( 0.0000,  0.0000,  0.0000)
  31 C     -1.412012   -2.274140    2.460000    ( 0.0000,  0.0000,  0.0000)
  32 C     -2.311073   -1.226497    2.460000    ( 0.0000,  0.0000,  0.0000)
  33 C     -1.617846    0.024761    2.460000    ( 0.0000,  0.0000,  0.0000)
  34 C     -2.432363    1.178547    2.460000    ( 0.0000,  0.0000,  0.0000)
  35 C     -1.597766    2.336102    2.460000    ( 0.0000,  0.0000,  0.0000)
  36 C      1.500534   -3.102059    2.460000    ( 0.0000,  0.0000,  0.0000)
  37 C     -0.034236   -2.157693    2.460000    ( 0.0000,  0.0000,  0.0000)
  38 C      0.816602   -1.076757    2.460000    ( 0.0000,  0.0000,  0.0000)
  39 C     -0.098580   -0.024539    2.460000    ( 0.0000,  0.0000,  0.0000)
  40 C      0.702797    1.105421    2.460000    ( 0.0000,  0.0000,  0.0000)
  41 C     -0.116050    2.177093    2.460000    ( 0.0000,  0.0000,  0.0000)
  42 C      0.476516    3.363202    2.460000    ( 0.0000,  0.0000,  0.0000)
  43 C      2.702316   -2.442787    2.460000    ( 0.0000,  0.0000,  0.0000)
  44 C      2.276058   -1.121067    2.460000    ( 0.0000,  0.0000,  0.0000)
  45 C      3.162183   -0.016538    2.460000    ( 0.0000,  0.0000,  0.0000)
  46 C      2.231304    1.101522    2.460000    ( 0.0000,  0.0000,  0.0000)
  47 C      2.730588    2.325739    2.460000    ( 0.0000,  0.0000,  0.0000)
  48 C      5.856101   -0.684174    2.460000    ( 0.0000,  0.0000,  0.0000)
  49 C      4.607971    0.053986    2.460000    ( 0.0000,  0.0000,  0.0000)
  50 C      7.192063   -0.204166    2.460000    ( 0.0000,  0.0000,  0.0000)

Unit cell:
           periodic     x           y           z      points  spacing
  1. axis:    yes    7.681348    4.434828    0.000000    40     0.1920
  2. axis:    yes    7.681348   -4.434828    0.000000    40     0.1920
  3. axis:    yes    0.000000    0.000000    4.920000    21     0.2343

  Lengths:   8.869656   8.869656   4.920000
  Angles:   90.000000  90.000000  60.000000

Effective grid spacing dv^(1/3) = 0.2153

     iter     time        total  log10-change:
                         energy   eigst   dens
iter:   1 19:26:11  -417.541975   -1.50
iter:   2 19:26:14  -417.168725   -3.08  -1.78
iter:   3 19:26:17  -416.863873   -2.81  -1.91
iter:   4 19:26:20  -416.783336   -3.27  -2.09
iter:   5 19:26:24  -416.743826   -3.04  -2.24
iter:   6 19:26:27  -416.734368c  -4.17  -2.49
iter:   7 19:26:30  -416.730252c  -4.08  -2.61
iter:   8 19:26:33  -416.727925c  -4.78  -2.80
iter:   9 19:26:35  -416.727514c  -5.09  -2.97
iter:  10 19:26:38  -416.727087c  -5.57  -3.09
iter:  11 19:26:40  -416.726827c  -5.70  -3.19
iter:  12 19:26:43  -416.726828c  -6.22  -3.35
iter:  13 19:26:45  -416.726939c  -6.12  -3.45
iter:  14 19:26:48  -416.726936c  -6.84  -3.67
iter:  15 19:26:50  -416.726941c  -7.20  -3.88
iter:  16 19:26:53  -416.726940c  -7.04  -3.99
iter:  17 19:26:56  -416.726930c  -8.18c -4.15c

Converged after 17 iterations.

Dipole moment: (15.600633, 2.229563, -0.000000) |e|*Ang

Energy contributions relative to reference atoms: (reference = -52409.033889)

Kinetic:       +511.136646
Potential:     -448.455119
External:        +0.000000
XC:            -480.642824
Entropy (-ST):   -0.285304
Local:           +1.377019
SIC:             +0.000000
--------------------------
Free energy:   -416.869582
Extrapolated:  -416.726930

Showing all kpts
 Kpt  Band  Eigenvalues  Occupancy
  0   100      9.57533    1.98395
  0   101      9.89703    1.66413
  0   102     10.15296    0.55416
  0   103     10.27126    0.21017

  1   100      9.59745    1.98002
  1   101     10.02051    1.18075
  1   102     10.22232    0.32151
  1   103     10.36811    0.08535


Fermi level: 10.05706

Gap: 0.132 eV
Transition (v -> c):
  (s=0, k=1, n=101, [0.25, 0.25, 0.25]) -> (s=0, k=0, n=102, [0.25, -0.25, 0.25])
Direct/indirect transitions are different
Direct gap: 0.202 eV
Transition at: (s=0, k=1, n=101, [0.25, 0.25, 0.25])

Forces in eV/Ang:
  0 C     0.20430    0.09393    0.00000
  1 C     0.04531    0.02428    0.00000
  2 C    -0.05324   -0.23493    0.00000
  3 C     0.09556   -0.03307    0.00000
  4 C     0.08289    0.14449    0.00000
  5 C     0.22464    0.01149    0.00000
  6 C     0.32421    0.21149    0.00000
  7 C    -0.17305   -0.40317    0.00000
  8 C    -0.02318    0.24936    0.00000
  9 C     0.02103   -0.04388    0.00000
 10 C    -0.00154   -0.16838    0.00000
 11 C    -0.06192    0.16493    0.00000
 12 C    -0.08392   -0.03242    0.00000
 13 C     0.06737   -0.07685    0.00000
 14 C     0.15671   -0.07121    0.00000
 15 C     0.00789    0.10886    0.00000
 16 C     0.07057   -0.16700    0.00000
 17 C    -0.24354   -0.12312    0.00000
 18 C     0.20404   -0.10046    0.00000
 19 C    -0.11052   -0.06103    0.00000
 20 C     0.03575    0.04323    0.00000
 21 C    -0.01763   -0.04105    0.00000
 22 C     0.15422   -0.24193    0.00000
 23 C    -0.12864    0.07390    0.00000
 24 C    -0.02652   -0.19470    0.00000
 25 C     0.09519   -0.04161    0.00000
 26 C    -2.32961   -0.62990    0.00000
 27 C    -5.42976   -2.88270    0.00000
 28 C    -0.98983   -1.14799    0.00000
 29 C     1.17443    1.46741    0.00000
 30 C     0.78450    0.68257    0.00000
 31 C    -1.39242   -0.31704    0.00000
 32 C     1.22737   -0.67759    0.00000
 33 C     0.69119   -0.80799    0.00000
 34 C     0.04440    0.66153    0.00000
 35 C     0.29353    0.07550    0.00000
 36 C     5.40951   -0.71750    0.00000
 37 C    -2.00141   -0.13080    0.00000
 38 C    -0.81115    0.94352    0.00000
 39 C     0.19042    1.40999    0.00000
 40 C     0.37177   -1.46415    0.00000
 41 C    -1.32571   -1.71011    0.00000
 42 C     5.62773   -0.90019    0.00000
 43 C    -0.47160    0.04963    0.00000
 44 C     0.10627   -0.35131    0.00000
 45 C     0.89353    0.60403    0.00000
 46 C    -1.37252   -0.29093    0.00000
 47 C     1.43562    1.45544    0.00000
 48 C    -1.88978   -0.82840    0.00000
 49 C    -0.49792    0.57005    0.00000
 50 C    -0.63705    5.82396    0.00000

System changes: positions 

Initializing position-dependent things.

Density initialized from wave functions


Positions:
   0 C     -6.498864    0.330835    0.000000    ( 0.0000,  0.0000,  0.0000)
   1 C     -4.721808   -1.381481    0.000000    ( 0.0000,  0.0000,  0.0000)
   2 C     -3.744078   -0.356688    0.000000    ( 0.0000,  0.0000,  0.0000)
   3 C     -4.141396    1.015965    0.000000    ( 0.0000,  0.0000,  0.0000)
   4 C     -3.152595    2.048355    0.000000    ( 0.0000,  0.0000,  0.0000)
   5 C     -1.982191   -2.056483    0.000000    ( 0.0000,  0.0000,  0.0000)
   6 C     -2.368977   -0.690887    0.000000    ( 0.0000,  0.0000,  0.0000)
   7 C     -1.382190    0.332570    0.000000    ( 0.0000,  0.0000,  0.0000)
   8 C     -1.775713    1.704947    0.000000    ( 0.0000,  0.0000,  0.0000)
   9 C     -0.783309    2.726045    0.000000    ( 0.0000,  0.0000,  0.0000)
  10 C     -0.195950   -3.762771    0.000000    ( 0.0000,  0.0000,  0.0000)
  11 C     -0.601305   -2.402961    0.000000    ( 0.0000,  0.0000,  0.0000)
  12 C      0.382570   -1.380207    0.000000    ( 0.0000,  0.0000,  0.0000)
  13 C     -0.005124   -0.009820    0.000000    ( 0.0000,  0.0000,  0.0000)
  14 C      0.988833    1.010595    0.000000    ( 0.0000,  0.0000,  0.0000)
  15 C      0.596912    2.379179    0.000000    ( 0.0000,  0.0000,  0.0000)
  16 C      1.581436    3.395802    0.000000    ( 0.0000,  0.0000,  0.0000)
  17 C      2.164202   -3.083186    0.000000    ( 0.0000,  0.0000,  0.0000)
  18 C      1.761605   -1.722212    0.000000    ( 0.0000,  0.0000,  0.0000)
  19 C      2.752710   -0.696113    0.000000    ( 0.0000,  0.0000,  0.0000)
  20 C      2.362146    0.664335    0.000000    ( 0.0000,  0.0000,  0.0000)
  21 C      3.349230    1.692124    0.000000    ( 0.0000,  0.0000,  0.0000)
  22 C      4.132916   -1.043842    0.000000    ( 0.0000,  0.0000,  0.0000)
  23 C      5.116701   -0.014041    0.000000    ( 0.0000,  0.0000,  0.0000)
  24 C      4.716816    1.356080    0.000000    ( 0.0000,  0.0000,  0.0000)
  25 C      6.498201   -0.355776    0.000000    ( 0.0000,  0.0000,  0.0000)
  26 C     -5.709070   -0.893144    2.460000    ( 0.0000,  0.0000,  0.0000)
  27 C     -7.372644    1.001297    2.460000    ( 0.0000,  0.0000,  0.0000)
  28 C     -3.660779   -1.353437    2.460000    ( 0.0000,  0.0000,  0.0000)
  29 C     -4.465369   -0.178524    2.460000    ( 0.0000,  0.0000,  0.0000)
  30 C     -3.868791    1.085790    2.460000    ( 0.0000,  0.0000,  0.0000)
  31 C     -1.497948   -2.310220    2.460000    ( 0.0000,  0.0000,  0.0000)
  32 C     -2.284235   -1.221295    2.460000    ( 0.0000,  0.0000,  0.0000)
  33 C     -1.632782    0.030079    2.460000    ( 0.0000,  0.0000,  0.0000)
  34 C     -2.438355    1.208509    2.460000    ( 0.0000,  0.0000,  0.0000)
  35 C     -1.587665    2.336367    2.460000    ( 0.0000,  0.0000,  0.0000)
  36 C      1.604813   -3.272722    2.460000    ( 0.0000,  0.0000,  0.0000)
  37 C     -0.163081   -2.157083    2.460000    ( 0.0000,  0.0000,  0.0000)
  38 C      0.751947   -1.078058    2.460000    ( 0.0000,  0.0000,  0.0000)
  39 C     -0.119503    0.016127    2.460000    ( 0.0000,  0.0000,  0.0000)
  40 C      0.733840    1.102908    2.460000    ( 0.0000,  0.0000,  0.0000)
  41 C     -0.101906    2.206416    2.460000    ( 0.0000,  0.0000,  0.0000)
  42 C      0.498031    3.349788    2.460000    ( 0.0000,  0.0000,  0.0000)
  43 C      2.687710   -2.440905    2.460000    ( 0.0000,  0.0000,  0.0000)
  44 C      2.225052   -1.110749    2.460000    ( 0.0000,  0.0000,  0.0000)
  45 C      3.191336    0.000762    2.460000    ( 0.0000,  0.0000,  0.0000)
  46 C      2.255579    1.138518    2.460000    ( 0.0000,  0.0000,  0.0000)
  47 C      2.748455    2.333468    2.460000    ( 0.0000,  0.0000,  0.0000)
  48 C      5.837786   -0.697796    2.460000    ( 0.0000,  0.0000,  0.0000)
  49 C      4.632453    0.034966    2.460000    ( 0.0000,  0.0000,  0.0000)
  50 C      7.215273   -0.150569    2.460000    ( 0.0000,  0.0000,  0.0000)

Unit cell:
           periodic     x           y           z      points  spacing
  1. axis:    yes    7.681348    4.434828    0.000000    40     0.1920
  2. axis:    yes    7.681348   -4.434828    0.000000    40     0.1920
  3. axis:    yes    0.000000    0.000000    4.920000    21     0.2343

  Lengths:   8.869656   8.869656   4.920000
  Angles:   90.000000  90.000000  60.000000

Effective grid spacing dv^(1/3) = 0.2153

     iter     time        total  log10-change:
                         energy   eigst   dens
iter:   1 19:27:00  -421.296135   -1.05
iter:   2 19:27:02  -418.806153   -2.40  -1.52
iter:   3 19:27:05  -418.057209   -2.49  -1.75
iter:   4 19:27:08  -417.835282   -3.07  -1.92
iter:   5 19:27:12  -417.652929   -2.74  -2.04
