
  ___ ___ ___ _ _ _  
 |   |   |_  | | | | 
 | | | | | . | | | | 
 |__ |  _|___|_____|  25.1.0
 |___|_|             

User:   xavierduane-tessier@Xaviers-MacBook-Air-2.local
Date:   Thu Aug 14 16:47:20 2025
Arch:   arm64
Pid:    82866
CWD:    /Users/xavierduane-tessier/Downloads/Untitled/MDpractice
Python: 3.13.2
gpaw:   /Users/xavierduane-tessier/anaconda3/envs/MD/lib/python3.13/site-packages/gpaw
_gpaw:  /Users/xavierduane-tessier/anaconda3/envs/MD/lib/python3.13/site-packages/
        _gpaw.cpython-313-darwin.so
ase:    /Users/xavierduane-tessier/anaconda3/envs/MD/lib/python3.13/site-packages/ase (version 3.25.0)
numpy:  /Users/xavierduane-tessier/anaconda3/envs/MD/lib/python3.13/site-packages/numpy (version 2.2.4)
scipy:  /Users/xavierduane-tessier/anaconda3/envs/MD/lib/python3.13/site-packages/scipy (version 1.16.0)
libxc:  7.0.0
units:  Angstrom and eV
cores: 1
OpenMP: False
OMP_NUM_THREADS: 1

Input parameters:
  hund: True
  mode: {ecut: 340.0,
         name: pw}
  xc: PBE

System changes: positions, numbers, cell, pbc, initial_charges, initial_magmoms 

Initialize ...

species:
  H:
    name: Hydrogen
    id: d65de229564ff8ea4db303e23b6d1ecf
    Z: 1.0
    valence: 1
    core: 0
    charge: 0.0
    file: /Users/xavierduane-tessier/.gpaw/gpaw-setups-24.11.0/H.PBE.gz
    compensation charges: {type: gauss,
                           rc: 0.15,
                           lmax: 2}
    cutoffs: {filter: 0.85,
              core: 0.53}
    projectors:
      #              energy  rcut
      - 1s(1.00)    -6.494   0.476
      -  s          20.717   0.476
      -  p           0.000   0.476
  
    # Using partial waves for H as LCAO basis

Reference energy: -12.490162  # eV

Spin-polarized calculation.
Magnetic moment: 1.000000

Convergence criteria:
 Maximum [total energy] change in last 3 cyles: 0.0005 eV / valence electron
 Maximum integral of absolute [dens]ity change: 0.0001 electrons / valence electron
 Maximum integral of absolute [eigenst]ate change: 4e-08 eV^2 / valence electron
 Maximum number of scf [iter]ations: 333
 (Square brackets indicate name in SCF output, whereas a 'c' in
 the SCF output indicates the quantity has converged.)

Symmetries present (total): 2

  ( 1  0  0)  (-1  0  0)
  ( 0  1  0)  ( 0  1  0)
  ( 0  0  1)  ( 0  0  1)

1 k-point (Gamma)
1 k-point in the irreducible part of the Brillouin zone
       k-points in crystal coordinates                weights
   0:     0.00000000    0.00000000    0.00000000          1/1

Wave functions: Plane wave expansion
  Cutoff energy: 340.000 eV
  Number of coefficients: 14243 (reduced to 7122)
  Pulay-stress correction: 0.000000 eV/Ang^3 (de/decut=0.000000)
  Using Numpy's FFT
  ScaLapack parameters: grid=1x1, blocksize=None
  Wavefunction extrapolation:
    Improved wavefunction reuse through dual PAW basis 

Occupation numbers: # Zero width 

Eigensolver
   Davidson(niter=2) 

Densities:
  Coarse grid: 45*45*45 grid
  Fine grid: 90*90*90 grid
  Total Charge: 0.000000 

Density mixing:
  Method: difference
  Backend: pulay
  Linear mixing parameter: 0.05
  old densities: 5
  Damping of long wavelength oscillations: 50 

Hamiltonian:
  XC and Coulomb potentials evaluated on a 90*90*90 grid
  Using the PBE Exchange-Correlation functional
  External potential:
    NoExternalPotential
 

XC parameters: PBE with 2 nearest neighbor stencil

Memory estimate:
  Process memory now: 129.92 MiB
  Calculator: 70.61 MiB
    Density: 49.11 MiB
      Arrays: 24.33 MiB
      Localized functions: 15.04 MiB
      Mixer: 9.73 MiB
    Hamiltonian: 18.38 MiB
      Arrays: 18.08 MiB
      XC: 0.00 MiB
      Poisson: 0.00 MiB
      vbar: 0.31 MiB
    Wavefunctions: 3.12 MiB
      Arrays psit_nG: 0.22 MiB
      Eigensolver: 0.65 MiB
      Projections: 0.00 MiB
      Projectors: 0.38 MiB
      PW-descriptor: 1.87 MiB

Total number of cores used: 1

Number of atoms: 1
Number of atomic orbitals: 1
Number of bands in calculation: 1
Number of valence electrons: 1
Bands to converge: occupied

... initialized

Initializing position-dependent things.

Density initialized from atomic densities
Creating initial wave functions:
  1 band from LCAO basis set

       .------------------------.  
      /|                        |  
     / |                        |  
    /  |                        |  
   /   |                        |  
  /    |                        |  
 *     |                        |  
 |     |                        |  
 |     |                        |  
 |     |        H               |  
 |     |                        |  
 |     |                        |  
 |     .------------------------.  
 |    /                        /   
 |   /                        /    
 |  /                        /     
 | /                        /      
 |/                        /       
 *------------------------*        

Positions:
   0 H      5.000000    5.000000    5.000000    ( 0.0000,  0.0000,  1.0000)

Unit cell:
           periodic     x           y           z      points  spacing
  1. axis:    no    10.000000    0.000000    0.000000    45     0.2222
  2. axis:    no     0.000000   10.000100    0.000000    45     0.2222
  3. axis:    no     0.000000    0.000000   10.000200    45     0.2222

  Lengths:  10.000000  10.000100  10.000200
  Angles:   90.000000  90.000000  90.000000

Effective grid spacing dv^(1/3) = 0.2222

     iter     time        total  log10-change:  magmom
                         energy   eigst   dens
iter:   1 16:47:21    -1.078787                   +1.0000
iter:   2 16:47:21     2.724776   -2.06  -1.19    +1.0000
iter:   3 16:47:22     8.679319   -2.43  -1.14    +1.0000
iter:   4 16:47:22     0.948832   -1.94  -0.96    +1.0000
iter:   5 16:47:23     0.661962   -3.57  -2.68    +1.0000
iter:   6 16:47:23    -0.810553   -2.51  -2.54    +1.0000
iter:   7 16:47:24    -1.061794   -2.86  -1.72    +1.0000
iter:   8 16:47:24    -1.049209   -5.45  -2.03    +1.0000
iter:   9 16:47:25    -1.053247   -4.73  -2.03    +1.0000
iter:  10 16:47:25    -1.050519   -5.55  -2.27    +1.0000
iter:  11 16:47:25    -0.540246   -3.88  -2.15    +1.0000
iter:  12 16:47:26    -1.067012   -4.62  -3.35    +1.0000
iter:  13 16:47:26    -1.074585   -5.93  -2.92    +1.0000
iter:  14 16:47:27    -1.075671   -6.76  -3.27    +1.0000
iter:  15 16:47:27    -1.075884   -7.58c -3.59    +1.0000
iter:  16 16:47:27    -1.074443   -6.92  -3.64    +1.0000
iter:  17 16:47:28    -1.076757   -6.62  -3.31    +1.0000
iter:  18 16:47:28    -1.076596   -9.16c -4.31c   +1.0000
iter:  19 16:47:28    -1.076862c  -9.10c -4.17c   +1.0000

Converged after 19 iterations.

Dipole moment: (0.000000, 0.000001, 0.000002) |e|*Ang

Total magnetic moment: (0.000000, 0.000000, 1.000000)
Local magnetic moments:
   0 H  ( 0.000000,  0.000000,  0.262485)

Energy contributions relative to reference atoms: (reference = -12.490162)

Kinetic:         +1.084660
Potential:       -0.669424
External:        +0.000000
XC:              -1.488813
Entropy (-ST):   +0.000000
Local:           -0.003286
SIC:             +0.000000
--------------------------
Free energy:     -1.076862
Extrapolated:    -1.076862

Spin contamination: 0.000004 electrons
                   Up                     Down
 Band  Eigenvalues  Occupancy  Eigenvalues  Occupancy
    0     -7.54984    1.00000      0.08103    0.00000

Fermi level: -3.73441

Could not find a gap
Writing to H.gpw (mode='')

Timing:                              incl.     excl.
-----------------------------------------------------------
Hamiltonian:                         0.281     0.001   0.0% |
 Atomic:                             0.014     0.000   0.0% |
  XC Correction:                     0.014     0.014   0.1% |
 Calculate atomic Hamiltonians:      0.004     0.004   0.0% |
 Communicate:                        0.000     0.000   0.0% |
 Initialize Hamiltonian:             0.000     0.000   0.0% |
 Poisson:                            0.001     0.001   0.0% |
 XC 3D grid:                         0.261     0.261   2.1% ||
LCAO initialization:                 0.007     0.002   0.0% |
 LCAO eigensolver:                   0.001     0.000   0.0% |
  Calculate projections:             0.000     0.000   0.0% |
  DenseAtomicCorrection:             0.000     0.000   0.0% |
  Distribute overlap matrix:         0.000     0.000   0.0% |
  Orbital Layouts:                   0.000     0.000   0.0% |
  Potential matrix:                  0.000     0.000   0.0% |
 LCAO to grid:                       0.002     0.002   0.0% |
 Set positions (LCAO WFS):           0.002     0.000   0.0% |
  Basic WFS set positions:           0.000     0.000   0.0% |
  Basis functions set positions:     0.000     0.000   0.0% |
  P tci:                             0.000     0.000   0.0% |
  ST tci:                            0.000     0.000   0.0% |
  mktci:                             0.001     0.001   0.0% |
PWDescriptor:                        0.002     0.002   0.0% |
SCF-cycle:                           7.824     0.007   0.1% |
 Davidson:                           0.307     0.035   0.3% |
  Apply H:                           0.057     0.056   0.4% |
   HMM T:                            0.000     0.000   0.0% |
  Subspace diag:                     0.074     0.001   0.0% |
   calc_h_matrix:                    0.069     0.003   0.0% |
    Apply H:                         0.066     0.064   0.5% |
     HMM T:                          0.002     0.002   0.0% |
   diagonalize:                      0.002     0.002   0.0% |
   rotate_psi:                       0.002     0.002   0.0% |
  calc. matrices:                    0.136     0.015   0.1% |
   Apply H:                          0.121     0.120   1.0% |
    HMM T:                           0.001     0.001   0.0% |
  diagonalize:                       0.003     0.003   0.0% |
  rotate_psi:                        0.002     0.002   0.0% |
 Density:                            1.304     0.000   0.0% |
  Atomic density matrices:           0.003     0.003   0.0% |
  Mix:                               1.231     1.231   9.8% |---|
  Multipole moments:                 0.000     0.000   0.0% |
  Pseudo density:                    0.070     0.035   0.3% |
   Symmetrize density:               0.036     0.036   0.3% |
 Hamiltonian:                        6.206     0.083   0.7% |
  Atomic:                            0.177     0.003   0.0% |
   XC Correction:                    0.174     0.174   1.4% ||
  Calculate atomic Hamiltonians:     0.100     0.100   0.8% |
  Communicate:                       0.000     0.000   0.0% |
  Poisson:                           0.018     0.018   0.1% |
  XC 3D grid:                        5.828     5.828  46.5% |------------------|
 Orthonormalize:                     0.001     0.000   0.0% |
  calc_s_matrix:                     0.000     0.000   0.0% |
  inverse-cholesky:                  0.000     0.000   0.0% |
  projections:                       0.000     0.000   0.0% |
  rotate_psi_s:                      0.000     0.000   0.0% |
Set symmetry:                        0.001     0.001   0.0% |
Other:                               4.424     4.424  35.3% |-------------|
-----------------------------------------------------------
Total:                                        12.539 100.0%

Memory usage: 375.05 MiB
Date: Thu Aug 14 16:47:32 2025
