
  ___ ___ ___ _ _ _  
 |   |   |_  | | | | 
 | | | | | . | | | | 
 |__ |  _|___|_____|  25.1.0
 |___|_|             

User:   xavierduane-tessier@Xaviers-MacBook-Air-2.local
Date:   Thu Aug 14 16:47:28 2025
Arch:   arm64
Pid:    82866
CWD:    /Users/xavierduane-tessier/Downloads/Untitled/MDpractice
Python: 3.13.2
gpaw:   /Users/xavierduane-tessier/anaconda3/envs/MD/lib/python3.13/site-packages/gpaw
_gpaw:  /Users/xavierduane-tessier/anaconda3/envs/MD/lib/python3.13/site-packages/
        _gpaw.cpython-313-darwin.so
ase:    /Users/xavierduane-tessier/anaconda3/envs/MD/lib/python3.13/site-packages/ase (version 3.25.0)
numpy:  /Users/xavierduane-tessier/anaconda3/envs/MD/lib/python3.13/site-packages/numpy (version 2.2.4)
scipy:  /Users/xavierduane-tessier/anaconda3/envs/MD/lib/python3.13/site-packages/scipy (version 1.16.0)
libxc:  7.0.0
units:  Angstrom and eV
cores: 1
OpenMP: False
OMP_NUM_THREADS: 1

Input parameters:
  mode: {ecut: 340.0,
         name: pw}
  xc: PBE

System changes: positions, numbers, cell, pbc, initial_charges, initial_magmoms 

Initialize ...

species:
  H:
    name: Hydrogen
    id: d65de229564ff8ea4db303e23b6d1ecf
    Z: 1.0
    valence: 1
    core: 0
    charge: 0.0
    file: /Users/xavierduane-tessier/.gpaw/gpaw-setups-24.11.0/H.PBE.gz
    compensation charges: {type: gauss,
                           rc: 0.15,
                           lmax: 2}
    cutoffs: {filter: 0.85,
              core: 0.53}
    projectors:
      #              energy  rcut
      - 1s(1.00)    -6.494   0.476
      -  s          20.717   0.476
      -  p           0.000   0.476
  
    # Using partial waves for H as LCAO basis

Reference energy: -24.980324  # eV

Spin-paired calculation

Convergence criteria:
 Maximum [total energy] change in last 3 cyles: 0.0005 eV / valence electron
 Maximum integral of absolute [dens]ity change: 0.0001 electrons / valence electron
 Maximum integral of absolute [eigenst]ate change: 4e-08 eV^2 / valence electron
 Maximum number of scf [iter]ations: 333
 (Square brackets indicate name in SCF output, whereas a 'c' in
 the SCF output indicates the quantity has converged.)

Symmetries present (total): 16

  ( 1  0  0)  ( 1  0  0)  ( 1  0  0)  ( 1  0  0)  ( 1  0  0)  ( 1  0  0)
  ( 0  1  0)  ( 0  1  0)  ( 0  0  1)  ( 0  0  1)  ( 0  0 -1)  ( 0  0 -1)
  ( 0  0  1)  ( 0  0 -1)  ( 0  1  0)  ( 0 -1  0)  ( 0  1  0)  ( 0 -1  0)

  ( 1  0  0)  ( 1  0  0)  (-1  0  0)  (-1  0  0)  (-1  0  0)  (-1  0  0)
  ( 0 -1  0)  ( 0 -1  0)  ( 0  1  0)  ( 0  1  0)  ( 0  0  1)  ( 0  0  1)
  ( 0  0  1)  ( 0  0 -1)  ( 0  0  1)  ( 0  0 -1)  ( 0  1  0)  ( 0 -1  0)

  (-1  0  0)  (-1  0  0)  (-1  0  0)  (-1  0  0)
  ( 0  0 -1)  ( 0  0 -1)  ( 0 -1  0)  ( 0 -1  0)
  ( 0  1  0)  ( 0 -1  0)  ( 0  0  1)  ( 0  0 -1)

1 k-point (Gamma)
1 k-point in the irreducible part of the Brillouin zone
       k-points in crystal coordinates                weights
   0:     0.00000000    0.00000000    0.00000000          1/1

Wave functions: Plane wave expansion
  Cutoff energy: 340.000 eV
  Number of coefficients: 14243 (reduced to 7122)
  Pulay-stress correction: 0.000000 eV/Ang^3 (de/decut=0.000000)
  Using Numpy's FFT
  ScaLapack parameters: grid=1x1, blocksize=None
  Wavefunction extrapolation:
    Improved wavefunction reuse through dual PAW basis 

Occupation numbers: # Zero width 

Eigensolver
   Davidson(niter=2) 

Densities:
  Coarse grid: 45*45*45 grid
  Fine grid: 90*90*90 grid
  Total Charge: 0.000000 

Density mixing:
  Method: separate
  Backend: pulay
  Linear mixing parameter: 0.05
  old densities: 5
  Damping of long wavelength oscillations: 50 

Hamiltonian:
  XC and Coulomb potentials evaluated on a 90*90*90 grid
  Using the PBE Exchange-Correlation functional
  External potential:
    NoExternalPotential
 

XC parameters: PBE with 2 nearest neighbor stencil

Memory estimate:
  Process memory now: 343.36 MiB
  Calculator: 55.43 MiB
    Density: 40.07 MiB
      Arrays: 18.08 MiB
      Localized functions: 15.04 MiB
      Mixer: 6.95 MiB
    Hamiltonian: 12.13 MiB
      Arrays: 11.82 MiB
      XC: 0.00 MiB
      Poisson: 0.00 MiB
      vbar: 0.31 MiB
    Wavefunctions: 3.23 MiB
      Arrays psit_nG: 0.22 MiB
      Eigensolver: 0.76 MiB
      Projections: 0.00 MiB
      Projectors: 0.38 MiB
      PW-descriptor: 1.87 MiB

Total number of cores used: 1

Number of atoms: 2
Number of atomic orbitals: 2
Number of bands in calculation: 2
Number of valence electrons: 2
Bands to converge: occupied

... initialized

Initializing position-dependent things.

Density initialized from atomic densities
Creating initial wave functions:
  2 bands from LCAO basis set

       .------------------------.  
      /|                        |  
     / |                        |  
    /  |                        |  
   /   |                        |  
  /    |                        |  
 *     |                        |  
 |     |                        |  
 |     |                        |  
 |     |        HH              |  
 |     |                        |  
 |     |                        |  
 |     .------------------------.  
 |    /                        /   
 |   /                        /    
 |  /                        /     
 | /                        /      
 |/                        /       
 *------------------------*        

Positions:
   0 H      4.630000    5.000000    5.000000    ( 0.0000,  0.0000,  0.0000)
   1 H      5.370000    5.000000    5.000000    ( 0.0000,  0.0000,  0.0000)

Unit cell:
           periodic     x           y           z      points  spacing
  1. axis:    no    10.000000    0.000000    0.000000    45     0.2222
  2. axis:    no     0.000000   10.000000    0.000000    45     0.2222
  3. axis:    no     0.000000    0.000000   10.000000    45     0.2222

  Lengths:  10.000000  10.000000  10.000000
  Angles:   90.000000  90.000000  90.000000

Effective grid spacing dv^(1/3) = 0.2222

     iter     time        total  log10-change:
                         energy   eigst   dens
iter:   1 16:47:29    -7.253825
iter:   2 16:47:29    -7.221703   -0.76  -0.43
iter:   3 16:47:30    -8.298361   -0.90  -0.44
iter:   4 16:47:30    -6.657140   -0.30  -0.16
iter:   5 16:47:30    -6.649122   -2.72  -1.39
iter:   6 16:47:30    -6.655707   -2.66  -1.86
iter:   7 16:47:31    -6.649338   -2.47  -1.41
iter:   8 16:47:31    -6.649267   -4.87  -2.40
iter:   9 16:47:31    -6.649294c  -5.39  -2.79
iter:  10 16:47:32    -6.649255c  -4.84  -2.54
iter:  11 16:47:32    -6.649255c  -6.40  -3.53
iter:  12 16:47:32    -6.649255c  -8.44c -4.12c

Converged after 12 iterations.

Dipole moment: (-0.000000, 0.000000, 0.000000) |e|*Ang

Energy contributions relative to reference atoms: (reference = -24.980324)

Kinetic:         +6.256533
Potential:       -7.840689
External:        +0.000000
XC:              -5.058916
Entropy (-ST):   +0.000000
Local:           -0.006184
SIC:             +0.000000
--------------------------
Free energy:     -6.649255
Extrapolated:    -6.649255

 Band  Eigenvalues  Occupancy
    0    -10.33278    2.00000
    1      0.40921    0.00000

Fermi level: -4.96178

Gap: 10.742 eV
Transition (v -> c):
  (s=0, k=0, n=0, [0.00, 0.00, 0.00]) -> (s=0, k=0, n=1, [0.00, 0.00, 0.00])
No difference between direct/indirect transitions
Writing to H2.gpw (mode='')

Timing:                              incl.     excl.
-----------------------------------------------------------
Hamiltonian:                         0.262     0.013   0.3% |
 Atomic:                             0.021     0.000   0.0% |
  XC Correction:                     0.020     0.020   0.5% |
 Calculate atomic Hamiltonians:      0.031     0.031   0.8% |
 Communicate:                        0.000     0.000   0.0% |
 Initialize Hamiltonian:             0.000     0.000   0.0% |
 Poisson:                            0.001     0.001   0.0% |
 XC 3D grid:                         0.196     0.196   4.9% |-|
LCAO initialization:                 0.014     0.002   0.0% |
 LCAO eigensolver:                   0.004     0.000   0.0% |
  Calculate projections:             0.000     0.000   0.0% |
  DenseAtomicCorrection:             0.000     0.000   0.0% |
  Distribute overlap matrix:         0.000     0.000   0.0% |
  Orbital Layouts:                   0.000     0.000   0.0% |
  Potential matrix:                  0.003     0.003   0.1% |
 LCAO to grid:                       0.002     0.002   0.1% |
 Set positions (LCAO WFS):           0.006     0.000   0.0% |
  Basic WFS set positions:           0.000     0.000   0.0% |
  Basis functions set positions:     0.000     0.000   0.0% |
  P tci:                             0.001     0.001   0.0% |
  ST tci:                            0.000     0.000   0.0% |
  mktci:                             0.004     0.004   0.1% |
PWDescriptor:                        0.002     0.002   0.0% |
SCF-cycle:                           3.474     0.003   0.1% |
 Davidson:                           0.289     0.025   0.6% |
  Apply H:                           0.045     0.045   1.1% |
   HMM T:                            0.001     0.001   0.0% |
  Subspace diag:                     0.074     0.001   0.0% |
   calc_h_matrix:                    0.071     0.002   0.0% |
    Apply H:                         0.070     0.068   1.7% ||
     HMM T:                          0.002     0.002   0.1% |
   diagonalize:                      0.001     0.001   0.0% |
   rotate_psi:                       0.001     0.001   0.0% |
  calc. matrices:                    0.143     0.008   0.2% |
   Apply H:                          0.136     0.135   3.4% ||
    HMM T:                           0.001     0.001   0.0% |
  diagonalize:                       0.001     0.001   0.0% |
  rotate_psi:                        0.001     0.001   0.0% |
 Density:                            0.862     0.000   0.0% |
  Atomic density matrices:           0.003     0.003   0.1% |
  Mix:                               0.638     0.638  16.1% |-----|
  Multipole moments:                 0.001     0.001   0.0% |
  Pseudo density:                    0.220     0.098   2.5% ||
   Symmetrize density:               0.122     0.122   3.1% ||
 Hamiltonian:                        2.320     0.022   0.6% |
  Atomic:                            0.176     0.002   0.1% |
   XC Correction:                    0.174     0.174   4.4% |-|
  Calculate atomic Hamiltonians:     0.111     0.111   2.8% ||
  Communicate:                       0.000     0.000   0.0% |
  Poisson:                           0.017     0.017   0.4% |
  XC 3D grid:                        1.993     1.993  50.2% |-------------------|
 Orthonormalize:                     0.000     0.000   0.0% |
  calc_s_matrix:                     0.000     0.000   0.0% |
  inverse-cholesky:                  0.000     0.000   0.0% |
  projections:                       0.000     0.000   0.0% |
  rotate_psi_s:                      0.000     0.000   0.0% |
Set symmetry:                        0.001     0.001   0.0% |
Other:                               0.217     0.217   5.5% |-|
-----------------------------------------------------------
Total:                                         3.969 100.0%

Memory usage: 375.05 MiB
Date: Thu Aug 14 16:47:32 2025
