
  ___ ___ ___ _ _ _  
 |   |   |_  | | | | 
 | | | | | . | | | | 
 |__ |  _|___|_____|  24.6.0
 |___|_|             

User:   ajam@DESKTOP-5QB3SQI
Date:   Thu Sep  4 18:42:51 2025
Arch:   x86_64
Pid:    15139
CWD:    /mnt/c/Users/Aidan/Documents/GitHub/MDpractice/Aidan's Folder/TBG Project
Python: 3.11.13
gpaw:   /home/ajam/miniconda3/envs/gpaw/lib/python3.11/site-packages/gpaw
_gpaw:  /home/ajam/miniconda3/envs/gpaw/lib/python3.11/site-packages/
        _gpaw.cpython-311-x86_64-linux-gnu.so
ase:    /home/ajam/miniconda3/envs/gpaw/lib/python3.11/site-packages/ase (version 3.25.0)
numpy:  /home/ajam/miniconda3/envs/gpaw/lib/python3.11/site-packages/numpy (version 1.26.4)
scipy:  /home/ajam/miniconda3/envs/gpaw/lib/python3.11/site-packages/scipy (version 1.16.0)
libxc:  6.2.2
units:  Angstrom and eV
cores: 1
OpenMP: True
OMP_NUM_THREADS: 1

Reading from runs/test_smoke/20250904_184106__graphene_graphene__ang0.000/relax.gpw
Read dipole, energy, forces, free_energy, magmom, magmoms
Reading input parameters:
  convergence: {bands: occupied,
                density: 0.0001,
                eigenstates: 4e-08,
                energy: 0.0002}
  kpts: {density: 2.0,
         gamma: True}
  mode: {ecut: 400.0,
         name: pw}
  nbands: 120%
  occupations: {name: fermi-dirac,
                width: 0.05}
  xc: PBE

Initialize ...

species:
  C:
    name: Carbon
    id: 4aa54d4b901d75f77cc0ea3eec22967b
    Z: 6.0
    valence: 4
    core: 2
    charge: 0.0
    file: /home/ajam/miniconda3/envs/gpaw/share/gpaw/C.PBE.gz
    compensation charges: {type: gauss,
                           rc: 0.20,
                           lmax: 2}
    cutoffs: {filter: 1.14,
              core: 1.14}
    projectors:
      #              energy  rcut
      - 2s(2.00)   -13.751   0.635
      - 2p(2.00)    -5.284   0.635
      -  s          13.461   0.635
      -  p          21.927   0.635
      -  d           0.000   0.635
  
    # Using partial waves for C as LCAO basis

Reference energy: -4110.512462  # eV

Spin-paired calculation

Convergence criteria:
 Maximum [total energy] change in last 3 cyles: 0.0002 eV / valence electron
 Maximum integral of absolute [dens]ity change: 0.0001 electrons / valence electron
 Maximum integral of absolute [eigenst]ate change: 4e-08 eV^2 / valence electron
 Maximum number of scf [iter]ations: 333
 (Square brackets indicate name in SCF output, whereas a 'c' in
 the SCF output indicates the quantity has converged.)

Symmetries present (total): 4

  ( 1  0  0)  ( 1  0  0)  (-1  1  0)  (-1  1  0)
  ( 0  1  0)  ( 0  1  0)  ( 0  1  0)  ( 0  1  0)
  ( 0  0  1)  ( 0  0 -1)  ( 0  0  1)  ( 0  0 -1)
Note: your k-points are not as symmetric as your crystal!

66 k-points: 11 x 6 x 1 Monkhorst-Pack grid + [0.000000,1/12,0.000000]
34 k-points in the irreducible part of the Brillouin zone
       k-points in crystal coordinates                weights
   0:     0.00000000    0.00000000    0.00000000          1/66
   1:     0.00000000    0.16666667    0.00000000          2/66
   2:     0.00000000    0.33333333    0.00000000          2/66
   3:     0.00000000    0.50000000    0.00000000          1/66
   4:     0.09090909   -0.33333333    0.00000000          2/66
   5:     0.09090909   -0.16666667    0.00000000          2/66
   6:     0.09090909    0.00000000    0.00000000          2/66
   7:     0.09090909    0.16666667    0.00000000          2/66
   8:     0.09090909    0.33333333    0.00000000          2/66
   9:     0.09090909    0.50000000    0.00000000          2/66
          ...
  33:     0.45454545    0.50000000    0.00000000          2/66

Wave functions: Plane wave expansion
  Cutoff energy: 400.000 eV
  Number of coefficients (min, max): 2197, 2317
  Pulay-stress correction: 0.000000 eV/Ang^3 (de/decut=0.000000)
  Using FFTW library
  ScaLapack parameters: grid=1x1, blocksize=None
  Wavefunction extrapolation:
    Improved wavefunction reuse through dual PAW basis 

Occupation numbers: Fermi-Dirac:
  width: 0.0500  # eV
 

Eigensolver
   Davidson(niter=2) 

Densities:
  Coarse grid: 20*20*112 grid
  Fine grid: 40*40*224 grid
  Total Charge: 0.000000 

Density mixing:
  Method: separate
  Backend: pulay
  Linear mixing parameter: 0.05
  old densities: 5
  Damping of long wavelength oscillations: 50 

Hamiltonian:
  XC and Coulomb potentials evaluated on a 40*40*224 grid
  Using the PBE Exchange-Correlation functional
  External potential:
    NoExternalPotential
 

XC parameters: PBE with 2 nearest neighbor stencil

Memory estimate:
  Process memory now: 207.88 MiB
  Calculator: 44.62 MiB
    Density: 14.72 MiB
      Arrays: 8.89 MiB
      Localized functions: 2.42 MiB
      Mixer: 3.42 MiB
    Hamiltonian: 5.86 MiB
      Arrays: 5.81 MiB
      XC: 0.00 MiB
      Poisson: 0.00 MiB
      vbar: 0.05 MiB
    Wavefunctions: 24.04 MiB
      Arrays psit_nG: 12.02 MiB
      Eigensolver: 0.55 MiB
      Projections: 0.27 MiB
      Projectors: 8.29 MiB
      PW-descriptor: 2.91 MiB

Total number of cores used: 1

Number of atoms: 4
Number of atomic orbitals: 16
Number of bands in calculation: 10
Number of valence electrons: 16
Bands to converge: occupied

... initialized

Timing:           incl.     excl.
----------------------------------------
PWDescriptor:     0.014     0.014  11.1% |---|
Redistribute:     0.000     0.000   0.0% |
Set symmetry:     0.001     0.001   0.9% |
Other:            0.114     0.114  87.9% |----------------------------------|
----------------------------------------
Total:                      0.129 100.0%

Memory usage: 207.88 MiB
Date: Thu Sep  4 18:42:51 2025
