
  ___ ___ ___ _ _ _  
 |   |   |_  | | | | 
 | | | | | . | | | | 
 |__ |  _|___|_____|  24.6.0
 |___|_|             

User:   ajam@DESKTOP-5QB3SQI
Date:   Tue Sep  2 01:31:51 2025
Arch:   x86_64
Pid:    122273
CWD:    /mnt/c/Users/Aidan/Documents/GitHub/MDpractice/Aidan's Folder/TBG Project
Python: 3.11.13
gpaw:   /home/ajam/miniconda3/envs/gpaw/lib/python3.11/site-packages/gpaw
_gpaw:  /home/ajam/miniconda3/envs/gpaw/lib/python3.11/site-packages/
        _gpaw.cpython-311-x86_64-linux-gnu.so
ase:    /home/ajam/miniconda3/envs/gpaw/lib/python3.11/site-packages/ase (version 3.25.0)
numpy:  /home/ajam/miniconda3/envs/gpaw/lib/python3.11/site-packages/numpy (version 1.26.4)
scipy:  /home/ajam/miniconda3/envs/gpaw/lib/python3.11/site-packages/scipy (version 1.16.0)
libxc:  6.2.2
units:  Angstrom and eV
cores: 1
OpenMP: True
OMP_NUM_THREADS: 1

Input parameters:
  basis: sz
  convergence: {density: 0.0001,
                eigenstates: 1e-08,
                energy: 0.0005,
                maxiter: 120}
  kpts: [1 1 1]
  mixer: {backend: pulay,
          beta: 0.1,
          method: separate,
          nmaxold: 7,
          weight: 50.0}
  mode: lcao
  nbands: 110%
  occupations: {fixmagmom: False,
                name: fermi-dirac,
                width: 0.1}
  xc: PBE

System changes: positions, numbers, cell, pbc, initial_charges, initial_magmoms 

Initialize ...

Memory usage: 177.34 MiB
Date: Tue Sep  2 01:31:51 2025
