
  ___ ___ ___ _ _ _  
 |   |   |_  | | | | 
 | | | | | . | | | | 
 |__ |  _|___|_____|  24.6.0
 |___|_|             

User:   ajam@DESKTOP-5QB3SQI
Date:   Mon Sep  1 17:49:04 2025
Arch:   x86_64
Pid:    31794
CWD:    /mnt/c/Users/Aidan/Documents/GitHub/MDpractice/Aidan's Folder/TBG Project
Python: 3.11.13
gpaw:   /home/ajam/miniconda3/envs/gpaw/lib/python3.11/site-packages/gpaw
_gpaw:  /home/ajam/miniconda3/envs/gpaw/lib/python3.11/site-packages/
        _gpaw.cpython-311-x86_64-linux-gnu.so
ase:    /home/ajam/miniconda3/envs/gpaw/lib/python3.11/site-packages/ase (version 3.25.0)
numpy:  /home/ajam/miniconda3/envs/gpaw/lib/python3.11/site-packages/numpy (version 1.26.4)
scipy:  /home/ajam/miniconda3/envs/gpaw/lib/python3.11/site-packages/scipy (version 1.16.0)
libxc:  6.2.2
units:  Angstrom and eV
cores: 1
OpenMP: True
OMP_NUM_THREADS: 1

Input parameters:
  basis: dzp
  convergence: {energy: 0.0002}
  kpts: {density: 2.0,
         gamma: True}
  mode: lcao
  nbands: 120%
  occupations: {fixmagmom: False,
                name: fermi-dirac,
                width: 0.05}
  xc: PBE

System changes: positions, numbers, cell, pbc, initial_charges, initial_magmoms 

Initialize ...

species:
  B:
    name: Boron
    id: 6e91439235a05fd7549e31636e8f777c
    Z: 5.0
    valence: 3
    core: 2
    charge: 0.0
    file: /home/ajam/miniconda3/envs/gpaw/share/gpaw/B.PBE.gz
    compensation charges: {type: gauss,
                           rc: 0.20,
                           lmax: 2}
    cutoffs: {filter: 1.14,
              core: 1.38}
    projectors:
      #              energy  rcut
      - 2s(2.00)    -9.443   0.635
      - 2p(1.00)    -3.606   0.635
      -  s          17.768   0.635
      -  p          23.605   0.635
      -  d           0.000   0.635
  
    # LCAO basis set for B:
    #   Name: dzp
    #   File: /home/ajam/miniconda3/envs/gpaw/share/gpaw/B.dzp.basis.gz
    #   Number of radial functions: 5
    #   Number of spherical harmonics: 13
    #     l=0, rc=6.6719 Bohr: 2s-sz confined orbital
    #     l=1, rc=8.2188 Bohr: 2p-sz confined orbital
    #     l=0, rc=3.7500 Bohr: 2s-dz split-valence wave
    #     l=1, rc=4.6094 Bohr: 2p-dz split-valence wave
    #     l=2, rc=8.2188 Bohr: d-type Gaussian polarization
    #   Number of RI-basis functions 0

  N:
    name: Nitrogen
    id: f7500608b86eaa90eef8b1d9a670dc53
    Z: 7.0
    valence: 5
    core: 2
    charge: 0.0
    file: /home/ajam/miniconda3/envs/gpaw/share/gpaw/N.PBE.gz
    compensation charges: {type: gauss,
                           rc: 0.18,
                           lmax: 2}
    cutoffs: {filter: 1.11,
              core: 0.96}
    projectors:
      #              energy  rcut
      - 2s(2.00)   -18.583   0.603
      - 2p(3.00)    -7.089   0.529
      -  s           8.629   0.603
      -  p          20.123   0.529
      -  d           0.000   0.577
  
    # LCAO basis set for N:
    #   Name: dzp
    #   File: /home/ajam/miniconda3/envs/gpaw/share/gpaw/N.dzp.basis.gz
    #   Number of radial functions: 5
    #   Number of spherical harmonics: 13
    #     l=0, rc=4.8594 Bohr: 2s-sz confined orbital
    #     l=1, rc=6.0625 Bohr: 2p-sz confined orbital
    #     l=0, rc=2.6094 Bohr: 2s-dz split-valence wave
    #     l=1, rc=3.2656 Bohr: 2p-dz split-valence wave
    #     l=2, rc=6.0625 Bohr: d-type Gaussian polarization
    #   Number of RI-basis functions 0

Reference energy: -30116.955001  # eV

Spin-paired calculation

Convergence criteria:
 Maximum [total energy] change in last 3 cyles: 0.0002 eV / valence electron
 Maximum integral of absolute [dens]ity change: 0.0001 electrons / valence electron
 Maximum integral of absolute [eigenst]ate change: 4e-08 eV^2 / valence electron
 Maximum number of scf [iter]ations: 333
 (Square brackets indicate name in SCF output, whereas a 'c' in
 the SCF output indicates the quantity has converged.)

Symmetries present (total): 1

  ( 1  0  0)
  ( 0  1  0)
  ( 0  0  1)

6 k-points: 3 x 2 x 1 Monkhorst-Pack grid + [0.000000,1/4,0.000000]
4 k-points in the irreducible part of the Brillouin zone
       k-points in crystal coordinates                weights
   0:     0.00000000    0.00000000    0.00000000          1/6
   1:     0.00000000    0.50000000    0.00000000          1/6
   2:     0.33333333    0.00000000    0.00000000          2/6
   3:     0.33333333    0.50000000    0.00000000          2/6

Wave functions: LCAO
  Diagonalizer: Serial LAPACK
  Atomic Correction: dense with blas
  Data-type: complex
 

Occupation numbers: Fermi-Dirac:
  width: 0.0500  # eV
 

Eigensolver
   LCAO using direct dense diagonalizer 

Densities:
  Coarse grid: 20*44*100 grid
  Fine grid: 40*88*200 grid
  Total Charge: 0.000000 

Density mixing:
  Method: separate
  Backend: pulay
  Linear mixing parameter: 0.05
  old densities: 5
  Damping of long wavelength oscillations: 50 

Hamiltonian:
  XC and Coulomb potentials evaluated on a 40*88*200 grid
  Using the PBE Exchange-Correlation functional
  Interpolation: tri-quintic (5. degree polynomial)
  Poisson solver: FastPoissonSolver using
    Stencil: 8*3+1=25 point O(h^6) finite-difference Laplacian
    FFT axes: [0, 1]
    FST axes: [2]
 

XC parameters: PBE with 2 nearest neighbor stencil

Memory estimate:
  Process memory now: 196.44 MiB
  Calculator: 123.63 MiB
    Density: 38.38 MiB
      Arrays: 17.36 MiB
      Localized functions: 14.37 MiB
      Mixer: 6.65 MiB
    Hamiltonian: 12.53 MiB
      Arrays: 11.35 MiB
      XC: 0.00 MiB
      Poisson: 0.00 MiB
      vbar: 1.18 MiB
    Wavefunctions: 72.71 MiB
      C [qnM]: 1.51 MiB
      S, T [2 x qmm]: 16.17 MiB
      P [aqMi]: 0.51 MiB
      BasisFunctions: 54.52 MiB
      Eigensolver: 0.00 MiB

Total number of cores used: 1

Number of atoms: 28
Number of atomic orbitals: 364
Number of bands in calculation: 68
Number of valence electrons: 112
Bands to converge: occupied

... initialized

Initializing position-dependent things.

Density initialized from atomic densities
                                         
                                         
                                         
                                         
                          BN  B          
              N      N  B   B  N         
           B      N                      
          N   N  B                       
                       B  N  B           
                  B   N  B  N            
           N      N     N                
        B    NB     B                    
                                         
                                         
                                         
                                         

Positions:
   0 B      0.000000    0.000000   -1.675000    ( 0.0000,  0.0000,  0.0000)
   1 N      1.252000    0.722843   -1.675000    ( 0.0000,  0.0000,  0.0000)
   2 B      2.504000    0.000000   -1.675000    ( 0.0000,  0.0000,  0.0000)
   3 N      3.756000    0.722843   -1.675000    ( 0.0000,  0.0000,  0.0000)
   4 B      3.756000    2.168528   -1.675000    ( 0.0000,  0.0000,  0.0000)
   5 N      5.008000    2.891370   -1.675000    ( 0.0000,  0.0000,  0.0000)
   6 B      5.008000    4.337055   -1.675000    ( 0.0000,  0.0000,  0.0000)
   7 N      6.260000    5.059898   -1.675000    ( 0.0000,  0.0000,  0.0000)
   8 B      5.008000    0.000000   -1.675000    ( 0.0000,  0.0000,  0.0000)
   9 N      6.260000    0.722843   -1.675000    ( 0.0000,  0.0000,  0.0000)
  10 B      6.260000    2.168528   -1.675000    ( 0.0000,  0.0000,  0.0000)
  11 N      7.512000    2.891370   -1.675000    ( 0.0000,  0.0000,  0.0000)
  12 B      7.512000    4.337055   -1.675000    ( 0.0000,  0.0000,  0.0000)
  13 N      2.504000   -1.445685   -1.675000    ( 0.0000,  0.0000,  0.0000)
  14 B      1.252000    0.722843    1.675000    ( 0.0000,  0.0000,  0.0000)
  15 N      2.146286    1.858738    1.675000    ( 0.0000,  0.0000,  0.0000)
  16 B      3.577143    1.652212    1.675000    ( 0.0000,  0.0000,  0.0000)
  17 N      4.471429    2.788107    1.675000    ( 0.0000,  0.0000,  0.0000)
  18 B      7.690857    1.962001    1.675000    ( 0.0000,  0.0000,  0.0000)
  19 N      8.585143    3.097897    1.675000    ( 0.0000,  0.0000,  0.0000)
  20 B      8.048571    4.440318    1.675000    ( 0.0000,  0.0000,  0.0000)
  21 N      2.682857   -0.929369    1.675000    ( 0.0000,  0.0000,  0.0000)
  22 B      5.902286    2.581580    1.675000    ( 0.0000,  0.0000,  0.0000)
  23 N      6.796571    3.717476    1.675000    ( 0.0000,  0.0000,  0.0000)
  24 B      6.260000    5.059898    1.675000    ( 0.0000,  0.0000,  0.0000)
  25 N      0.894286   -0.309790    1.675000    ( 0.0000,  0.0000,  0.0000)
  26 B      4.113714   -1.135895    1.675000    ( 0.0000,  0.0000,  0.0000)
  27 N      4.113714    0.309790    1.675000    ( 0.0000,  0.0000,  0.0000)

Unit cell:
           periodic     x           y           z      points  spacing
  1. axis:    yes    3.756000   -2.168528    0.000000    20     0.2105
  2. axis:    yes    6.260000    6.505583    0.000000    44     0.1992
  3. axis:    no     0.000000    0.000000   20.000000   100     0.2000

  Lengths:   4.337055   9.028300  20.000000
  Angles:   90.000000  90.000000  76.102114

Effective grid spacing dv^(1/3) = 0.2052

     iter     time        total  log10-change:
                         energy   eigst   dens
iter:   1 17:49:06  -201.402089        c
iter:   2 17:49:09  -198.627079        c -0.79
iter:   3 17:49:12  -190.952651        c -0.83
iter:   4 17:49:15  -190.339951        c -1.11
iter:   5 17:49:17  -190.044451        c -1.21
iter:   6 17:49:20  -190.188743        c -1.51
iter:   7 17:49:22  -190.204646        c -1.71
iter:   8 17:49:25  -190.175675        c -2.07
iter:   9 17:49:27  -190.149215        c -2.23
iter:  10 17:49:30  -190.140768        c -2.39
iter:  11 17:49:32  -190.110983        c -2.45
iter:  12 17:49:35  -190.108784        c -2.64
iter:  13 17:49:38  -190.106497c       c -2.69
iter:  14 17:49:40  -190.107638c       c -3.15
iter:  15 17:49:44  -190.109830c       c -3.26
iter:  16 17:49:46  -190.110024c       c -3.67
iter:  17 17:49:49  -190.110527c       c -3.72
iter:  18 17:49:51  -190.110384c       c -3.82
iter:  19 17:49:54  -190.110205c       c -3.86
iter:  20 17:49:56  -190.109077c       c -3.89
iter:  21 17:49:59  -190.108967c       c -4.10c

Converged after 21 iterations.

Dipole moment: (-13.740882, -15.270861, 0.083699) |e|*Ang

Energy contributions relative to reference atoms: (reference = -30116.955001)

Kinetic:       +318.237466
Potential:     -269.301933
External:        +0.000000
XC:            -248.841529
Entropy (-ST):   -0.015401
Local:           +9.804730
SIC:             +0.000000
--------------------------
Free energy:   -190.116667
Extrapolated:  -190.108967

Showing only first 2 kpts
 Kpt  Band  Eigenvalues  Occupancy
  0    54     -3.73950    1.99999
  0    55     -3.30800    1.95655
  0    56     -3.21182    1.73607
  0    57     -0.86972    0.00000

  1    54     -3.72583    1.99999
  1    55     -3.03235    0.30740
  1    56     -2.51005    0.00001
  1    57     -0.94360    0.00000


Fermi level: -3.11764

No gap
No difference between direct/indirect transitions

Forces in eV/Ang:
  0 B     0.02239   -0.01038   -0.34186
  1 N    -0.01403    0.17839   -0.18189
  2 B     0.01709    0.03392   -0.34930
  3 N    -0.04585   -0.06766   -0.12579
  4 B    -0.00533   -0.00087   -0.34425
  5 N     0.02713    0.22477   -0.19637
  6 B     0.01901   -0.01062   -0.35307
  7 N    -0.20216   -0.04621   -0.17767
  8 B     0.05572   -0.05130   -0.35280
  9 N    -0.03368   -0.14684   -0.18882
 10 B     0.04341   -0.00161   -0.34465
 11 N     0.16370   -0.04811   -0.19143
 12 B    -0.01148   -0.02871   -0.34810
 13 N     0.05171   -0.07451   -0.19316
 14 B    84.93203   -2.23220    0.20969
 15 N     1.07908   -1.71141    0.15213
 16 B    -0.49692   -0.13472    0.44889
 17 N     1.47717   -0.33616    0.23223
 18 B    -1.21160   -1.71092    0.26617
 19 N     6.84708   -2.49015    0.24874
 20 B     3.69683   -3.63086    0.26979
 21 N     1.62258   -5.76943    0.18566
 22 B     3.63156   -0.15646    0.26438
 23 N    -7.32736    8.40699    0.28395
 24 B    -3.25186   -0.25127    0.25610
 25 N   -12.05137  -20.01345    0.27279
 26 B   -79.86996   28.71421    0.24862
 27 N     1.28967    0.78794    0.27475

System changes: positions 

Initializing position-dependent things.

Density initialized from wave functions
                                         
                                         
                                         
                                         
                          BN  B          
              N     N   B   B  N         
            B     N                      
          N   N  B                       
                       B  N  B           
                  B   N  B  N            
           N      N     N                
        B    NB     B                    
                                         
                                         
                                         
                                         

Positions:
   0 B      0.000000    0.000000   -1.675000    ( 0.0000,  0.0000,  0.0000)
   1 N      1.252000    0.722843   -1.675000    ( 0.0000,  0.0000,  0.0000)
   2 B      2.504000    0.000000   -1.675000    ( 0.0000,  0.0000,  0.0000)
   3 N      3.756000    0.722843   -1.675000    ( 0.0000,  0.0000,  0.0000)
   4 B      3.756000    2.168528   -1.675000    ( 0.0000,  0.0000,  0.0000)
   5 N      5.008000    2.891370   -1.675000    ( 0.0000,  0.0000,  0.0000)
   6 B      5.008000    4.337055   -1.675000    ( 0.0000,  0.0000,  0.0000)
   7 N      6.260000    5.059898   -1.675000    ( 0.0000,  0.0000,  0.0000)
   8 B      5.008000    0.000000   -1.675000    ( 0.0000,  0.0000,  0.0000)
   9 N      6.260000    0.722843   -1.675000    ( 0.0000,  0.0000,  0.0000)
  10 B      6.260000    2.168528   -1.675000    ( 0.0000,  0.0000,  0.0000)
  11 N      7.512000    2.891370   -1.675000    ( 0.0000,  0.0000,  0.0000)
  12 B      7.512000    4.337055   -1.675000    ( 0.0000,  0.0000,  0.0000)
  13 N      2.504000   -1.445685   -1.675000    ( 0.0000,  0.0000,  0.0000)
  14 B      1.451930    0.717588    1.675494    ( 0.0000,  0.0000,  0.0000)
  15 N      2.148826    1.854709    1.675358    ( 0.0000,  0.0000,  0.0000)
  16 B      3.575973    1.651894    1.676057    ( 0.0000,  0.0000,  0.0000)
  17 N      4.474906    2.787316    1.675547    ( 0.0000,  0.0000,  0.0000)
  18 B      7.688005    1.957974    1.675627    ( 0.0000,  0.0000,  0.0000)
  19 N      8.601261    3.092035    1.675586    ( 0.0000,  0.0000,  0.0000)
  20 B      8.057274    4.431771    1.675635    ( 0.0000,  0.0000,  0.0000)
  21 N      2.686677   -0.942950    1.675437    ( 0.0000,  0.0000,  0.0000)
  22 B      5.910834    2.581212    1.675622    ( 0.0000,  0.0000,  0.0000)
  23 N      6.779323    3.737266    1.675668    ( 0.0000,  0.0000,  0.0000)
  24 B      6.252345    5.059306    1.675603    ( 0.0000,  0.0000,  0.0000)
  25 N      0.865917   -0.356901    1.675642    ( 0.0000,  0.0000,  0.0000)
  26 B      3.925700   -1.068302    1.675585    ( 0.0000,  0.0000,  0.0000)
  27 N      4.116750    0.311644    1.675647    ( 0.0000,  0.0000,  0.0000)

Unit cell:
           periodic     x           y           z      points  spacing
  1. axis:    yes    3.756000   -2.168528    0.000000    20     0.2105
  2. axis:    yes    6.260000    6.505583    0.000000    44     0.1992
  3. axis:    no     0.000000    0.000000   20.000000   100     0.2000

  Lengths:   4.337055   9.028300  20.000000
  Angles:   90.000000  90.000000  76.102114

Effective grid spacing dv^(1/3) = 0.2052

     iter     time        total  log10-change:
                         energy   eigst   dens
iter:   1 17:50:11  -212.517475        c
iter:   2 17:50:14  -210.776437        c -1.37
iter:   3 17:50:17  -209.733810        c -1.50
iter:   4 17:50:20  -208.416237        c -1.62
iter:   5 17:50:22  -208.383127        c -1.92
iter:   6 17:50:25  -208.247028        c -1.96
iter:   7 17:50:27  -208.238502        c -2.15
iter:   8 17:50:30  -208.209181        c -2.17
iter:   9 17:50:32  -208.199189        c -2.32
iter:  10 17:50:35  -208.191937c       c -2.39
iter:  11 17:50:37  -208.185157c       c -2.58
iter:  12 17:50:40  -208.185172c       c -2.83
iter:  13 17:50:42  -208.183417c       c -2.90
iter:  14 17:50:45  -208.183633c       c -3.07
iter:  15 17:50:48  -208.183768c       c -3.15
iter:  16 17:50:51  -208.183924c       c -3.33
iter:  17 17:50:54  -208.184118c       c -3.42
iter:  18 17:50:56  -208.184089c       c -3.71
iter:  19 17:50:59  -208.184099c       c -3.77
iter:  20 17:51:01  -208.184255c       c -3.84
iter:  21 17:51:04  -208.184276c       c -4.20c

Converged after 21 iterations.

Dipole moment: (-14.397267, -15.148008, 0.098106) |e|*Ang

Energy contributions relative to reference atoms: (reference = -30116.955001)

Kinetic:       +292.379472
Potential:     -262.729336
External:        +0.000000
XC:            -247.609135
Entropy (-ST):   -0.017404
Local:           +9.783425
SIC:             +0.000000
--------------------------
Free energy:   -208.192978
Extrapolated:  -208.184276

Showing only first 2 kpts
 Kpt  Band  Eigenvalues  Occupancy
  0    54     -3.62518    2.00000
  0    55     -2.79031    1.99462
  0    56     -2.20897    0.00659
  0    57     -1.04718    0.00000

  1    54     -3.83701    2.00000
  1    55     -2.58221    1.70467
  1    56     -1.16874    0.00000
  1    57     -1.09688    0.00000


Fermi level: -2.49456

Gap: 0.222 eV
Transition (v -> c):
  (s=0, k=1, n=55, [0.00, 0.50, 0.00]) -> (s=0, k=3, n=56, [0.33, 0.50, 0.00])
Direct/indirect transitions are different
Direct gap: 0.581 eV
Transition at: (s=0, k=0, n=55, [0.00, 0.00, 0.00])

Forces in eV/Ang:
  0 B     0.02236   -0.01035   -0.33999
  1 N    -0.01400    0.17839   -0.18152
  2 B     0.01707    0.03394   -0.34742
  3 N    -0.04583   -0.06767   -0.12542
  4 B    -0.00535   -0.00085   -0.34238
  5 N     0.02714    0.22477   -0.19600
  6 B     0.01899   -0.01059   -0.35120
  7 N    -0.20215   -0.04621   -0.17730
  8 B     0.05569   -0.05126   -0.35092
  9 N    -0.03366   -0.14686   -0.18845
 10 B     0.04338   -0.00156   -0.34278
 11 N     0.16373   -0.04813   -0.19105
 12 B    -0.01152   -0.02869   -0.34623
 13 N     0.05175   -0.07453   -0.19278
 14 B    16.88235   -0.26799    0.27259
 15 N     2.73861    0.74584    0.13873
 16 B     0.38906    0.17216    0.41917
 17 N     1.33706   -0.45099    0.23827
 18 B    -0.85196   -1.36355    0.28090
 19 N     5.48765   -1.89245    0.20345
 20 B     2.60713   -5.23025    0.27960
 21 N    -6.35719   -4.89149    0.18411
 22 B     3.61222    0.10259    0.26593
 23 N    -6.21609    8.33934    0.23352
 24 B    -4.45485   -0.93834    0.28982
 25 N    -7.82245   -0.49741    0.28535
 26 B    -8.85874    3.07699    0.28064
 27 N     1.90394    2.59880    0.24352

System changes: positions 

Initializing position-dependent things.

Density initialized from wave functions
                                         
                                         
                                         
                                         
                          N   B          
              N     N   B   B  N         
            B     N                      
          N   N  B                       
                       B  N  B           
                  B   N B   N            
           N     N      N                
        B    NB     B                    
                                         
                                         
                                         
                                         

Positions:
   0 B      0.000000    0.000000   -1.675000    ( 0.0000,  0.0000,  0.0000)
   1 N      1.252000    0.722843   -1.675000    ( 0.0000,  0.0000,  0.0000)
   2 B      2.504000    0.000000   -1.675000    ( 0.0000,  0.0000,  0.0000)
   3 N      3.756000    0.722843   -1.675000    ( 0.0000,  0.0000,  0.0000)
   4 B      3.756000    2.168528   -1.675000    ( 0.0000,  0.0000,  0.0000)
   5 N      5.008000    2.891370   -1.675000    ( 0.0000,  0.0000,  0.0000)
   6 B      5.008000    4.337055   -1.675000    ( 0.0000,  0.0000,  0.0000)
   7 N      6.260000    5.059898   -1.675000    ( 0.0000,  0.0000,  0.0000)
   8 B      5.008000    0.000000   -1.675000    ( 0.0000,  0.0000,  0.0000)
   9 N      6.260000    0.722843   -1.675000    ( 0.0000,  0.0000,  0.0000)
  10 B      6.260000    2.168528   -1.675000    ( 0.0000,  0.0000,  0.0000)
  11 N      7.512000    2.891370   -1.675000    ( 0.0000,  0.0000,  0.0000)
  12 B      7.512000    4.337055   -1.675000    ( 0.0000,  0.0000,  0.0000)
  13 N      2.504000   -1.445685   -1.675000    ( 0.0000,  0.0000,  0.0000)
  14 B      1.570043    0.717505    1.679756    ( 0.0000,  0.0000,  0.0000)
  15 N      2.193728    1.871003    1.677435    ( 0.0000,  0.0000,  0.0000)
  16 B      3.583670    1.655128    1.682354    ( 0.0000,  0.0000,  0.0000)
  17 N      4.494902    2.780242    1.679173    ( 0.0000,  0.0000,  0.0000)
  18 B      7.675812    1.937996    1.679917    ( 0.0000,  0.0000,  0.0000)
  19 N      8.681739    3.064543    1.678580    ( 0.0000,  0.0000,  0.0000)
  20 B      8.094608    4.349200    1.679896    ( 0.0000,  0.0000,  0.0000)
  21 N      2.574078   -1.015362    1.678226    ( 0.0000,  0.0000,  0.0000)
  22 B      5.965583    2.583293    1.679659    ( 0.0000,  0.0000,  0.0000)
  23 N      6.687293    3.863615    1.679108    ( 0.0000,  0.0000,  0.0000)
  24 B      6.182338    5.043681    1.680067    ( 0.0000,  0.0000,  0.0000)
  25 N      0.755843   -0.324883    1.679996    ( 0.0000,  0.0000,  0.0000)
  26 B      3.935289   -1.073603    1.679907    ( 0.0000,  0.0000,  0.0000)
  27 N      4.146873    0.354733    1.679277    ( 0.0000,  0.0000,  0.0000)

Unit cell:
           periodic     x           y           z      points  spacing
  1. axis:    yes    3.756000   -2.168528    0.000000    20     0.2105
  2. axis:    yes    6.260000    6.505583    0.000000    44     0.1992
  3. axis:    no     0.000000    0.000000   20.000000   100     0.2000

  Lengths:   4.337055   9.028300  20.000000
  Angles:   90.000000  90.000000  76.102114

Effective grid spacing dv^(1/3) = 0.2052

     iter     time        total  log10-change:
                         energy   eigst   dens
iter:   1 17:51:16  -213.559413        c
iter:   2 17:51:19  -213.267148        c -1.66
iter:   3 17:51:22  -212.801825        c -1.73
iter:   4 17:51:25  -212.773482        c -1.95
iter:   5 17:51:28  -212.753100        c -2.01
iter:   6 17:51:30  -212.771169c       c -2.10
iter:   7 17:51:33  -212.717403        c -2.21
iter:   8 17:51:36  -212.703151        c -2.40
iter:   9 17:51:38  -212.698443c       c -2.48
iter:  10 17:51:42  -212.698175c       c -2.69
iter:  11 17:51:44  -212.702344c       c -2.78
iter:  12 17:51:47  -212.694609c       c -2.70
iter:  13 17:51:55  -212.694069c       c -2.99
iter:  14 17:51:58  -212.694069c       c -3.29
iter:  15 17:52:01  -212.694082c       c -3.47
iter:  16 17:52:03  -212.693960c       c -3.59
iter:  17 17:52:06  -212.693939c       c -3.69
iter:  18 17:52:09  -212.693993c       c -3.80
iter:  19 17:52:11  -212.694026c       c -4.01c

Converged after 19 iterations.

Dipole moment: (-18.427149, -15.737911, 0.131966) |e|*Ang

Energy contributions relative to reference atoms: (reference = -30116.955001)

Kinetic:       +284.597764
Potential:     -259.796860
External:        +0.000000
XC:            -247.288729
Entropy (-ST):   -0.060455
Local:           +9.824026
SIC:             +0.000000
--------------------------
Free energy:   -212.724254
Extrapolated:  -212.694026

Showing only first 2 kpts
 Kpt  Band  Eigenvalues  Occupancy
  0    54     -4.22204    2.00000
  0    55     -2.70554    0.52724
  0    56     -1.93298    0.00000
  0    57     -1.28584    0.00000

  1    54     -4.24376    2.00000
  1    55     -2.66434    0.27145
  1    56     -1.29872    0.00000
  1    57     -0.79936    0.00000


Fermi level: -2.75690

No gap
No difference between direct/indirect transitions

Forces in eV/Ang:
  0 B     0.02237   -0.01036   -0.33324
  1 N    -0.01402    0.17842   -0.17776
  2 B     0.01708    0.03395   -0.34068
  3 N    -0.04584   -0.06766   -0.12165
  4 B    -0.00535   -0.00087   -0.33563
  5 N     0.02711    0.22481   -0.19223
  6 B     0.01900   -0.01059   -0.34446
  7 N    -0.20220   -0.04618   -0.17353
  8 B     0.05570   -0.05127   -0.34418
  9 N    -0.03367   -0.14687   -0.18468
 10 B     0.04339   -0.00155   -0.33603
 11 N     0.16375   -0.04815   -0.18729
 12 B    -0.01152   -0.02869   -0.33948
 13 N     0.05175   -0.07453   -0.18902
 14 B    10.45004   -6.14052    0.27013
 15 N     1.45126    1.14956    0.17030
 16 B     1.93293    0.33693    0.37517
 17 N     1.66317   -0.27072    0.17429
 18 B     0.40227   -0.53381    0.27238
 19 N    -7.63517   -0.98062    0.22672
 20 B    -1.09174   -5.04558    0.28454
 21 N    -0.10269   -1.81375    0.24224
 22 B     2.46624    1.49558    0.28538
 23 N     1.90631   -1.91709    0.23474
 24 B     1.37256    3.64265    0.29317
 25 N    -3.75236    5.99861    0.18877
 26 B   -10.65831    4.22450    0.28351
 27 N     1.93373   -0.36307    0.22565

System changes: positions 

Initializing position-dependent things.

Density initialized from wave functions
                                         
                                         
                                         
                                         
                          N   B          
              N      N  B   B  N         
            B     N                      
         N   N   B                       
                       B  N  B           
                  B   N B   N            
           N      N     N                
        B    NB     B                    
                                         
                                         
                                         
                                         

Positions:
   0 B      0.000000    0.000000   -1.675000    ( 0.0000,  0.0000,  0.0000)
   1 N      1.252000    0.722843   -1.675000    ( 0.0000,  0.0000,  0.0000)
   2 B      2.504000    0.000000   -1.675000    ( 0.0000,  0.0000,  0.0000)
   3 N      3.756000    0.722843   -1.675000    ( 0.0000,  0.0000,  0.0000)
   4 B      3.756000    2.168528   -1.675000    ( 0.0000,  0.0000,  0.0000)
   5 N      5.008000    2.891370   -1.675000    ( 0.0000,  0.0000,  0.0000)
   6 B      5.008000    4.337055   -1.675000    ( 0.0000,  0.0000,  0.0000)
   7 N      6.260000    5.059898   -1.675000    ( 0.0000,  0.0000,  0.0000)
   8 B      5.008000    0.000000   -1.675000    ( 0.0000,  0.0000,  0.0000)
   9 N      6.260000    0.722843   -1.675000    ( 0.0000,  0.0000,  0.0000)
  10 B      6.260000    2.168528   -1.675000    ( 0.0000,  0.0000,  0.0000)
  11 N      7.512000    2.891370   -1.675000    ( 0.0000,  0.0000,  0.0000)
  12 B      7.512000    4.337055   -1.675000    ( 0.0000,  0.0000,  0.0000)
  13 N      2.504000   -1.445685   -1.675000    ( 0.0000,  0.0000,  0.0000)
  14 B      1.705615    0.627042    1.687222    ( 0.0000,  0.0000,  0.0000)
  15 N      2.252780    1.905034    1.681590    ( 0.0000,  0.0000,  0.0000)
  16 B      3.620491    1.663239    1.692816    ( 0.0000,  0.0000,  0.0000)
  17 N      4.535244    2.770543    1.684599    ( 0.0000,  0.0000,  0.0000)
  18 B      7.673279    1.915243    1.687359    ( 0.0000,  0.0000,  0.0000)
  19 N      8.624174    3.029678    1.684239    ( 0.0000,  0.0000,  0.0000)
  20 B      8.104518    4.206771    1.687493    ( 0.0000,  0.0000,  0.0000)
  21 N      2.473572   -1.096622    1.684040    ( 0.0000,  0.0000,  0.0000)
  22 B      6.044803    2.608125    1.687085    ( 0.0000,  0.0000,  0.0000)
  23 N      6.648261    3.930321    1.685220    ( 0.0000,  0.0000,  0.0000)
  24 B      6.148041    5.086226    1.687990    ( 0.0000,  0.0000,  0.0000)
  25 N      0.621969   -0.176427    1.686206    ( 0.0000,  0.0000,  0.0000)
  26 B      3.898579   -1.056005    1.687571    ( 0.0000,  0.0000,  0.0000)
  27 N      4.200304    0.384979    1.685428    ( 0.0000,  0.0000,  0.0000)

Unit cell:
           periodic     x           y           z      points  spacing
  1. axis:    yes    3.756000   -2.168528    0.000000    20     0.2105
  2. axis:    yes    6.260000    6.505583    0.000000    44     0.1992
  3. axis:    no     0.000000    0.000000   20.000000   100     0.2000

  Lengths:   4.337055   9.028300  20.000000
  Angles:   90.000000  90.000000  76.102114

Effective grid spacing dv^(1/3) = 0.2052

     iter     time        total  log10-change:
                         energy   eigst   dens
iter:   1 17:52:23  -216.845265        c
iter:   2 17:52:26  -216.713935        c -1.83
iter:   3 17:52:29  -216.513100        c -1.90
iter:   4 17:52:32  -216.503602        c -2.01
iter:   5 17:52:34  -216.487970        c -2.07
iter:   6 17:52:37  -216.490949c       c -2.16
iter:   7 17:52:40  -216.438199        c -2.30
iter:   8 17:52:42  -216.430423        c -2.46
iter:   9 17:52:45  -216.427141c       c -2.53
iter:  10 17:52:48  -216.424247c       c -2.63
iter:  11 17:52:50  -216.418941c       c -2.70
iter:  12 17:52:53  -216.418120c       c -2.86
iter:  13 17:52:56  -216.417819c       c -2.69
iter:  14 17:52:58  -216.415318c       c -2.92
iter:  15 17:53:02  -216.414361c       c -3.19
iter:  16 17:53:05  -216.416558c       c -3.11
iter:  17 17:53:08  -216.414626c       c -3.09
iter:  18 17:53:10  -216.415577c       c -3.60
iter:  19 17:53:13  -216.414539c       c -3.33
iter:  20 17:53:16  -216.414427c       c -4.07c

Converged after 20 iterations.

Dipole moment: (-21.505212, -19.063583, 0.172548) |e|*Ang

Energy contributions relative to reference atoms: (reference = -30116.955001)

Kinetic:       +279.243777
Potential:     -257.885041
External:        +0.000000
XC:            -247.583052
Entropy (-ST):   -0.060950
Local:           +9.840365
SIC:             +0.000000
--------------------------
Free energy:   -216.444902
Extrapolated:  -216.414427

Showing only first 2 kpts
 Kpt  Band  Eigenvalues  Occupancy
  0    54     -4.33557    2.00000
  0    55     -3.07166    0.51024
  0    56     -1.59011    0.00000
  0    57     -1.33907    0.00000

  1    54     -4.36606    2.00000
  1    55     -3.04368    0.32738
  1    56     -1.35564    0.00000
  1    57     -0.77976    0.00000


Fermi level: -3.12523

No gap
No difference between direct/indirect transitions

Forces in eV/Ang:
  0 B     0.02237   -0.01035   -0.33647
  1 N    -0.01401    0.17843   -0.18387
  2 B     0.01708    0.03396   -0.34390
  3 N    -0.04584   -0.06767   -0.12774
  4 B    -0.00536   -0.00087   -0.33886
  5 N     0.02710    0.22482   -0.19833
  6 B     0.01900   -0.01059   -0.34768
  7 N    -0.20221   -0.04617   -0.17963
  8 B     0.05570   -0.05127   -0.34740
  9 N    -0.03365   -0.14689   -0.19079
 10 B     0.04338   -0.00154   -0.33926
 11 N     0.16378   -0.04817   -0.19339
 12 B    -0.01153   -0.02869   -0.34271
 13 N     0.05177   -0.07455   -0.19512
 14 B     6.95919   -4.10972    0.24952
 15 N    -2.09280   -2.20676    0.16028
 16 B     2.72983    0.73217    0.33783
 17 N     1.95876    0.30392    0.17673
 18 B     0.49341   -1.36227    0.23923
 19 N    -3.81319   -5.93647    0.13352
 20 B    -5.67011    3.07780    0.24782
 21 N     1.55594    2.41397    0.18719
 22 B     0.08764    1.78714    0.25248
 23 N     4.06397   -4.73947    0.18361
 24 B     1.37729    5.50426    0.25492
 25 N    -1.50897    1.18415    0.15132
 26 B    -7.88805    5.99242    0.29289
 27 N     1.37160   -2.84114    0.16029

System changes: positions 

Initializing position-dependent things.

Density initialized from wave functions
                                          
                                          
                                          
                                          
                           B   B          
                     N   B N   N          
               N  B         B             
         N   B     N                      
             N   B     B   N  B           
                      N      N            
                   B     B                
        B   N B   N  B  N                 
             N                            
                                          
                                          
                                          
                                          

Positions:
   0 B      0.000000    0.000000   -1.675000    ( 0.0000,  0.0000,  0.0000)
   1 N      1.252000    0.722843   -1.675000    ( 0.0000,  0.0000,  0.0000)
   2 B      2.504000    0.000000   -1.675000    ( 0.0000,  0.0000,  0.0000)
   3 N      3.756000    0.722843   -1.675000    ( 0.0000,  0.0000,  0.0000)
   4 B      3.756000    2.168528   -1.675000    ( 0.0000,  0.0000,  0.0000)
   5 N      5.008000    2.891370   -1.675000    ( 0.0000,  0.0000,  0.0000)
   6 B      5.008000    4.337055   -1.675000    ( 0.0000,  0.0000,  0.0000)
   7 N      6.260000    5.059898   -1.675000    ( 0.0000,  0.0000,  0.0000)
   8 B      5.008000    0.000000   -1.675000    ( 0.0000,  0.0000,  0.0000)
   9 N      6.260000    0.722843   -1.675000    ( 0.0000,  0.0000,  0.0000)
  10 B      6.260000    2.168528   -1.675000    ( 0.0000,  0.0000,  0.0000)
  11 N      7.512000    2.891370   -1.675000    ( 0.0000,  0.0000,  0.0000)
  12 B      7.512000    4.337055   -1.675000    ( 0.0000,  0.0000,  0.0000)
  13 N      2.504000   -1.445685   -1.675000    ( 0.0000,  0.0000,  0.0000)
  14 B      1.846100    0.513069    1.697719    ( 0.0000,  0.0000,  0.0000)
  15 N      2.268222    1.892481    1.687584    ( 0.0000,  0.0000,  0.0000)
  16 B      3.693752    1.682867    1.707285    ( 0.0000,  0.0000,  0.0000)
  17 N      4.600831    2.767701    1.692370    ( 0.0000,  0.0000,  0.0000)
  18 B      7.675141    1.869047    1.697587    ( 0.0000,  0.0000,  0.0000)
  19 N      8.569860    2.888977    1.690868    ( 0.0000,  0.0000,  0.0000)
  20 B      8.022252    4.151279    1.697925    ( 0.0000,  0.0000,  0.0000)
  21 N      2.380866   -1.127097    1.691699    ( 0.0000,  0.0000,  0.0000)
  22 B      6.112600    2.654212    1.697388    ( 0.0000,  0.0000,  0.0000)
  23 N      6.656963    3.942421    1.693227    ( 0.0000,  0.0000,  0.0000)
  24 B      6.117131    5.198071    1.698856    ( 0.0000,  0.0000,  0.0000)
  25 N      0.479379   -0.036416    1.694273    ( 0.0000,  0.0000,  0.0000)
  26 B      3.861625   -0.983105    1.698946    ( 0.0000,  0.0000,  0.0000)
  27 N      4.267772    0.372768    1.693156    ( 0.0000,  0.0000,  0.0000)

Unit cell:
           periodic     x           y           z      points  spacing
  1. axis:    yes    3.756000   -2.168528    0.000000    20     0.2105
  2. axis:    yes    6.260000    6.505583    0.000000    44     0.1992
  3. axis:    no     0.000000    0.000000   20.000000   100     0.2000

  Lengths:   4.337055   9.028300  20.000000
  Angles:   90.000000  90.000000  76.102114

Effective grid spacing dv^(1/3) = 0.2052

     iter     time        total  log10-change:
                         energy   eigst   dens
iter:   1 17:53:30  -219.542079        c
iter:   2 17:53:34  -219.272063        c -1.76
iter:   3 17:53:36  -219.268467        c -1.82
iter:   4 17:53:39  -219.025585        c -1.90
iter:   5 17:53:42  -218.933769        c -1.97
iter:   6 17:53:44  -218.989031        c -2.07
iter:   7 17:53:47  -218.855748        c -2.04
iter:   8 17:53:49  -218.858070        c -2.58
iter:   9 17:53:52  -218.862225c       c -2.56
iter:  10 17:53:54  -218.869960c       c -2.56
iter:  11 17:53:57  -218.852586c       c -2.41
iter:  12 17:54:00  -218.854460c       c -3.17
iter:  13 17:54:02  -218.852169c       c -2.92
iter:  14 17:54:05  -218.852294c       c -3.48
iter:  15 17:54:08  -218.852047c       c -3.47
iter:  16 17:54:11  -218.852096c       c -3.74
Timing:                                       incl.     excl.
--------------------------------------------------------------------
Basic WFS set positions:                      0.008     0.002   0.0% |
 Redistribute:                                0.006     0.006   0.0% |
Basis functions set positions:                0.158     0.158   0.1% |
Forces:                                      37.968     0.164   0.1% |
 LCAO forces:                                37.804     0.023   0.0% |
  Atomic Hamiltonian force:                   1.128     1.128   0.4% |
  Initial:                                    0.067     0.000   0.0% |
   Get density matrix:                        0.067     0.067   0.0% |
  Paw correction:                             1.338     1.338   0.4% |
  Potential:                                 33.857    33.857  11.0% |---|
  TCI derivative:                             1.391     1.391   0.5% |
  Wait for sum:                               0.000     0.000   0.0% |
LCAO WFS Initialize:                          8.237     0.025   0.0% |
 Density initialized from wave functions:     6.641     0.027   0.0% |
  Calculate density matrix:                   0.117     0.117   0.0% |
  Construct density:                          6.497     6.497   2.1% ||
  Symmetrize density:                         0.000     0.000   0.0% |
 Hamiltonian:                                 1.571     0.000   0.0% |
  Atomic:                                     0.848     0.003   0.0% |
   XC Correction:                             0.845     0.845   0.3% |
  Calculate atomic Hamiltonians:              0.009     0.009   0.0% |
  Communicate:                                0.000     0.000   0.0% |
  Hartree integrate/restrict:                 0.017     0.017   0.0% |
  Initialize Hamiltonian:                     0.000     0.000   0.0% |
  Poisson:                                    0.265     0.016   0.0% |
   Communicate from 1D:                       0.039     0.039   0.0% |
   Communicate from 2D:                       0.020     0.020   0.0% |
   Communicate to 1D:                         0.021     0.021   0.0% |
   Communicate to 2D:                         0.055     0.055   0.0% |
   FFT 1D:                                    0.050     0.050   0.0% |
   FFT 2D:                                    0.064     0.064   0.0% |
  XC 3D grid:                                 0.422     0.422   0.1% |
  vbar:                                       0.009     0.009   0.0% |
P tci:                                        0.896     0.896   0.3% |
Redistribute:                                 0.000     0.000   0.0% |
SCF-cycle:                                  260.458     0.241   0.1% |
 Density:                                   162.103     0.001   0.0% |
  Atomic density matrices:                    0.135     0.135   0.0% |
  Mix:                                        1.821     1.821   0.6% |
  Multipole moments:                          0.013     0.013   0.0% |
  Normalize:                                  0.006     0.006   0.0% |
  Pseudo density:                           160.126     0.023   0.0% |
   Calculate density matrix:                  2.644     2.644   0.9% |
   Construct density:                       157.458   157.458  50.9% |-------------------|
   Symmetrize density:                        0.002     0.002   0.0% |
 Hamiltonian:                                30.407     0.004   0.0% |
  Atomic:                                    16.800     0.063   0.0% |
   XC Correction:                            16.736    16.736   5.4% |-|
  Calculate atomic Hamiltonians:              0.158     0.158   0.1% |
  Communicate:                                0.001     0.001   0.0% |
  Hartree integrate/restrict:                 0.313     0.313   0.1% |
  Poisson:                                    4.748     0.268   0.1% |
   Communicate from 1D:                       0.605     0.605   0.2% |
   Communicate from 2D:                       0.394     0.394   0.1% |
   Communicate to 1D:                         0.343     0.343   0.1% |
   Communicate to 2D:                         0.989     0.989   0.3% |
   FFT 1D:                                    0.978     0.978   0.3% |
   FFT 2D:                                    1.172     1.172   0.4% |
  XC 3D grid:                                 8.202     8.202   2.7% ||
  vbar:                                       0.180     0.180   0.1% |
 LCAO eigensolver:                           67.707     0.118   0.0% |
  Calculate projections:                      0.372     0.372   0.1% |
  DenseAtomicCorrection:                      3.345     3.345   1.1% |
  Distribute overlap matrix:                  0.178     0.178   0.1% |
  Orbital Layouts:                           21.051    21.051   6.8% |--|
  Potential matrix:                          38.741    38.741  12.5% |----|
  Sum over cells:                             3.901     3.901   1.3% ||
ST tci:                                       0.311     0.311   0.1% |
Set symmetry:                                 0.000     0.000   0.0% |
TCI: Evaluate splines:                        0.071     0.071   0.0% |
mktci:                                        0.023     0.023   0.0% |
Other:                                        0.914     0.914   0.3% |
--------------------------------------------------------------------
Total:                                                309.045 100.0%

Memory usage: 554.43 MiB
Date: Mon Sep  1 17:54:13 2025
