
  ___ ___ ___ _ _ _  
 |   |   |_  | | | | 
 | | | | | . | | | | 
 |__ |  _|___|_____|  24.6.0
 |___|_|             

User:   ajam@DESKTOP-5QB3SQI
Date:   Tue Sep  2 02:01:13 2025
Arch:   x86_64
Pid:    128484
CWD:    /mnt/c/Users/Aidan/Documents/GitHub/MDpractice/Aidan's Folder/TBG Project
Python: 3.11.13
gpaw:   /home/ajam/miniconda3/envs/gpaw/lib/python3.11/site-packages/gpaw
_gpaw:  /home/ajam/miniconda3/envs/gpaw/lib/python3.11/site-packages/
        _gpaw.cpython-311-x86_64-linux-gnu.so
ase:    /home/ajam/miniconda3/envs/gpaw/lib/python3.11/site-packages/ase (version 3.25.0)
numpy:  /home/ajam/miniconda3/envs/gpaw/lib/python3.11/site-packages/numpy (version 1.26.4)
scipy:  /home/ajam/miniconda3/envs/gpaw/lib/python3.11/site-packages/scipy (version 1.16.0)
libxc:  6.2.2
units:  Angstrom and eV
cores: 1
OpenMP: True
OMP_NUM_THREADS: 1

Input parameters:
  basis: dzp
  convergence: {density: 0.0003,
                eigenstates: 1e-08,
                energy: 0.0005,
                maximum iterations: 250}
  kpts: [2 2 1]
  mixer: {backend: pulay,
          beta: 0.07,
          method: separate,
          nmaxold: 8,
          weight: 100.0}
  mode: {ecut: 300.0,
         name: pw}
  nbands: 140%
  occupations: {fixmagmom: False,
                name: fermi-dirac,
                width: 0.1}
  symmetry: off
  xc: PBE

System changes: positions, numbers, cell, pbc, initial_charges, initial_magmoms 

Initialize ...

species:
  C:
    name: Carbon
    id: 4aa54d4b901d75f77cc0ea3eec22967b
    Z: 6.0
    valence: 4
    core: 2
    charge: 0.0
    file: /home/ajam/miniconda3/envs/gpaw/share/gpaw/C.PBE.gz
    compensation charges: {type: gauss,
                           rc: 0.20,
                           lmax: 2}
    cutoffs: {filter: 1.14,
              core: 1.14}
    projectors:
      #              energy  rcut
      - 2s(2.00)   -13.751   0.635
      - 2p(2.00)    -5.284   0.635
      -  s          13.461   0.635
      -  p          21.927   0.635
      -  d           0.000   0.635
  
    # LCAO basis set for C:
    #   Name: dzp
    #   File: /home/ajam/miniconda3/envs/gpaw/share/gpaw/C.dzp.basis.gz
    #   Number of radial functions: 5
    #   Number of spherical harmonics: 13
    #     l=0, rc=5.5469 Bohr: 2s-sz confined orbital
    #     l=1, rc=6.6719 Bohr: 2p-sz confined orbital
    #     l=0, rc=3.0312 Bohr: 2s-dz split-valence wave
    #     l=1, rc=3.7500 Bohr: 2p-dz split-valence wave
    #     l=2, rc=6.6719 Bohr: d-type Gaussian polarization
    #   Number of RI-basis functions 0

Reference energy: -22607.818540  # eV

Spin-paired calculation

Convergence criteria:
 Maximum [total energy] change in last 3 cyles: 0.0005 eV / valence electron
 Maximum integral of absolute [dens]ity change: 0.0003 electrons / valence electron
 Maximum integral of absolute [eigenst]ate change: 1e-08 eV^2 / valence electron
 Maximum number of iterations [minit]: 250
 Maximum number of scf [iter]ations: 333
 (Square brackets indicate name in SCF output, whereas a 'c' in
 the SCF output indicates the quantity has converged.)

Symmetries present (total): 1

  ( 1  0  0)
  ( 0  1  0)
  ( 0  0  1)

4 k-points: 2 x 2 x 1 Monkhorst-Pack grid
4 k-points in the irreducible part of the Brillouin zone
       k-points in crystal coordinates                weights
   0:    -0.25000000   -0.25000000    0.00000000          1/4
   1:    -0.25000000    0.25000000    0.00000000          1/4
   2:     0.25000000   -0.25000000    0.00000000          1/4
   3:     0.25000000    0.25000000    0.00000000          1/4

Wave functions: Plane wave expansion
  Cutoff energy: 300.000 eV
  Number of coefficients (min, max): 10354, 10391
  Pulay-stress correction: 0.000000 eV/Ang^3 (de/decut=0.000000)
  Using FFTW library
  ScaLapack parameters: grid=1x1, blocksize=None
  Wavefunction extrapolation:
    Improved wavefunction reuse through dual PAW basis 

Occupation numbers: Fermi-Dirac:
  width: 0.1000  # eV
 

Eigensolver
   Davidson(niter=2) 

Densities:
  Coarse grid: 48*120*96 grid
  Fine grid: 96*240*192 grid
  Total Charge: 0.000000 

Density mixing:
  Method: separate
  Backend: pulay
  Linear mixing parameter: 0.07
  old densities: 8
  Damping of long wavelength oscillations: 100 

Hamiltonian:
  XC and Coulomb potentials evaluated on a 96*240*192 grid
  Using the PBE Exchange-Correlation functional
  External potential:
    NoExternalPotential
 

XC parameters: PBE with 2 nearest neighbor stencil

Memory estimate:
  Process memory now: 411.57 MiB
  Calculator: 337.88 MiB
    Density: 188.16 MiB
      Arrays: 109.69 MiB
      Localized functions: 10.97 MiB
      Mixer: 67.50 MiB
    Hamiltonian: 71.94 MiB
      Arrays: 71.72 MiB
      XC: 0.00 MiB
      Poisson: 0.00 MiB
      vbar: 0.22 MiB
    Wavefunctions: 77.77 MiB
      Arrays psit_nG: 39.32 MiB
      Eigensolver: 11.21 MiB
      Projections: 1.08 MiB
      Projectors: 4.43 MiB
      PW-descriptor: 21.73 MiB

Total number of cores used: 1

Number of atoms: 22
Number of atomic orbitals: 286
Number of bands in calculation: 62
Number of valence electrons: 88
Bands to converge: occupied

... initialized

Initializing position-dependent things.

Density initialized from atomic densities
Creating initial wave functions:
  62 bands from LCAO basis set



Positions:
   0 C      0.000000    0.000000   -1.675000    ( 0.0000,  0.0000,  0.0000)
   1 C      9.840000  -14.202817   -1.675000    ( 0.0000,  0.0000,  0.0000)
   2 C      9.840000  -12.782535   -1.675000    ( 0.0000,  0.0000,  0.0000)
   3 C     19.680000  -26.985352   -1.675000    ( 0.0000,  0.0000,  0.0000)
   4 C     12.300000  -17.043380   -1.675000    ( 0.0000,  0.0000,  0.0000)
   5 C      6.150000   -7.811549   -1.675000    ( 0.0000,  0.0000,  0.0000)
   6 C     14.760000  -21.304225   -1.675000    ( 0.0000,  0.0000,  0.0000)
   7 C      8.610000  -12.072394   -1.675000    ( 0.0000,  0.0000,  0.0000)
   8 C      8.610000  -10.652112   -1.675000    ( 0.0000,  0.0000,  0.0000)
   9 C     18.450000  -24.854929   -1.675000    ( 0.0000,  0.0000,  0.0000)
  10 C     11.070000  -14.912957   -1.675000    ( 0.0000,  0.0000,  0.0000)
  11 C      4.920000   -5.681127   -1.675000    ( 0.0000,  0.0000,  0.0000)
  12 C     13.530000  -19.173802   -1.675000    ( 0.0000,  0.0000,  0.0000)
  13 C      7.380000   -9.941972   -1.675000    ( 0.0000,  0.0000,  0.0000)
  14 C      0.000000    0.000000    1.675000    ( 0.0000,  0.0000,  0.0000)
  15 C      9.835254  -14.194662    1.675000    ( 0.0000,  0.0000,  0.0000)
  16 C      9.825822  -12.774409    1.675000    ( 0.0000,  0.0000,  0.0000)
  17 C     19.661077  -26.969072    1.675000    ( 0.0000,  0.0000,  0.0000)
  18 C     12.271645  -17.027128    1.675000    ( 0.0000,  0.0000,  0.0000)
  19 C      6.116899   -7.787143    1.675000    ( 0.0000,  0.0000,  0.0000)
  20 C     14.717467  -21.279847    1.675000    ( 0.0000,  0.0000,  0.0000)
  21 C      8.562721  -12.039862    1.675000    ( 0.0000,  0.0000,  0.0000)

Unit cell:
           periodic     x           y           z      points  spacing
  1. axis:    yes    7.380000   -8.521690    0.000000    48     0.0269
  2. axis:    yes   15.990000  -23.434647    0.000000   120     0.0271
  3. axis:    no     0.000000    0.000000   24.000000    96     0.2500

  Lengths:  11.273136  28.370104  24.000000
  Angles:   90.000000  90.000000   6.586776

Effective grid spacing dv^(1/3) = 0.1168

     iter     time        total  log10-change:
                         energy   eigst   dens  maxit
iter:   1 02:01:57  -177.903680                     1
iter:   2 02:02:04  -177.102131   -2.06  -0.89      2
iter:   3 02:02:12  -174.701487   -1.57  -0.93      3
iter:   4 02:02:19  -174.416849   -1.68  -1.18      4
iter:   5 02:02:26  -174.436937   -2.54  -1.50      5
iter:   6 02:02:33  -174.421603c  -3.10  -1.63      6
iter:   7 02:02:40  -174.344863   -2.44  -1.75      7
iter:   8 02:02:48  -174.333809   -3.25  -2.02      8
iter:   9 02:02:57  -174.317623c  -3.88  -2.12      9
iter:  10 02:03:06  -174.308351c  -4.06  -2.38     10
iter:  11 02:03:17  -174.307055c  -4.90  -2.83     11
iter:  12 02:03:25  -174.306852c  -4.77  -2.97     12
iter:  13 02:03:32  -174.306687c  -5.91  -3.25     13
iter:  14 02:03:39  -174.306693c  -6.05  -3.52     14
iter:  15 02:03:47  -174.306701c  -6.61  -3.75c    15
iter:  16 02:03:58  -174.306687c  -7.52  -4.02c    16
iter:  17 02:04:08  -174.306692c  -7.49  -4.13c    17
iter:  18 02:04:16  -174.306697c  -8.63c -4.31c    18

Converged after 18 iterations.

Dipole moment: (1.717395, -5.485676, 5.243080) |e|*Ang

Energy contributions relative to reference atoms: (reference = -22607.818540)

Kinetic:       +100.557946
Potential:     -103.599992
External:        +0.000000
XC:            -172.345457
Entropy (-ST):   -0.326616
Local:           +1.244114
SIC:             +0.000000
--------------------------
Free energy:   -174.470006
Extrapolated:  -174.306697

Showing only first 2 kpts
 Kpt  Band  Eigenvalues  Occupancy
  0    42     -3.59539    1.93722
  0    43     -3.31777    1.31544
  0    44     -3.28225    1.14788
  0    45     -2.18779    0.00005

  1    42     -3.37365    1.54127
  1    43     -3.34539    1.43386
  1    44     -3.17640    0.63703
  1    45     -2.06232    0.00001


Fermi level: -3.25246

No gap
No difference between direct/indirect transitions

Forces in eV/Ang:
  0 C     0.06990   -0.29854   -0.10213
  1 C    -0.01502    0.25565   -0.12488
  2 C     0.04442   -0.29308   -0.10962
  3 C    -0.02265    0.22277   -0.07305
  4 C     0.02802   -0.22574   -0.07268
  5 C    -0.04643    0.29454   -0.10880
  6 C     0.01572   -0.25607   -0.12414
  7 C    -0.06314    0.29094   -0.10202
  8 C     0.01410   -0.28186   -0.02878
  9 C    -0.03963    0.32819   -0.05246
 10 C     0.00896   -0.30879   -0.05650
 11 C    -0.00485    0.30671   -0.05608
 12 C     0.03743   -0.32853   -0.05378
 13 C    -0.01396    0.28360   -0.02978
 14 C     3.89118    3.48103    0.08161
 15 C    -5.13783   -2.68123    0.10992
 16 C     1.34664    0.11208    0.17328
 17 C    -2.75034    5.25942    0.07327
 18 C     2.74880   -5.25835    0.07356
 19 C    -1.35389   -0.10322    0.17225
 20 C     5.13387    2.68632    0.11096
 21 C    -3.89542   -3.48108    0.08121

System changes: positions 

Initializing position-dependent things.

Density initialized from wave functions


Positions:
   0 C      0.000999   -0.004265   -1.676459    ( 0.0000,  0.0000,  0.0000)
   1 C      9.839785  -14.199164   -1.676784    ( 0.0000,  0.0000,  0.0000)
   2 C      9.840635  -12.786722   -1.676566    ( 0.0000,  0.0000,  0.0000)
   3 C     19.679676  -26.982169   -1.676044    ( 0.0000,  0.0000,  0.0000)
   4 C     12.300400  -17.046605   -1.676038    ( 0.0000,  0.0000,  0.0000)
   5 C      6.149337   -7.807341   -1.676554    ( 0.0000,  0.0000,  0.0000)
   6 C     14.760225  -21.307883   -1.676773    ( 0.0000,  0.0000,  0.0000)
   7 C      8.609098  -12.068238   -1.676457    ( 0.0000,  0.0000,  0.0000)
   8 C      8.610201  -10.656139   -1.675411    ( 0.0000,  0.0000,  0.0000)
   9 C     18.449434  -24.850241   -1.675749    ( 0.0000,  0.0000,  0.0000)
  10 C     11.070128  -14.917369   -1.675807    ( 0.0000,  0.0000,  0.0000)
  11 C      4.919931   -5.676745   -1.675801    ( 0.0000,  0.0000,  0.0000)
  12 C     13.530535  -19.178496   -1.675768    ( 0.0000,  0.0000,  0.0000)
  13 C      7.379801   -9.937920   -1.675425    ( 0.0000,  0.0000,  0.0000)
  14 C      0.055588    0.049729    1.676166    ( 0.0000,  0.0000,  0.0000)
  15 C      9.761857  -14.232966    1.676570    ( 0.0000,  0.0000,  0.0000)
  16 C      9.845060  -12.772808    1.677475    ( 0.0000,  0.0000,  0.0000)
  17 C     19.621786  -26.893937    1.676047    ( 0.0000,  0.0000,  0.0000)
  18 C     12.310913  -17.102248    1.676051    ( 0.0000,  0.0000,  0.0000)
  19 C      6.097558   -7.788618    1.677461    ( 0.0000,  0.0000,  0.0000)
  20 C     14.790808  -21.241471    1.676585    ( 0.0000,  0.0000,  0.0000)
  21 C      8.507072  -12.089592    1.676160    ( 0.0000,  0.0000,  0.0000)

Unit cell:
           periodic     x           y           z      points  spacing
  1. axis:    yes    7.380000   -8.521690    0.000000    48     0.0269
  2. axis:    yes   15.990000  -23.434647    0.000000   120     0.0271
  3. axis:    no     0.000000    0.000000   24.000000    96     0.2500

  Lengths:  11.273136  28.370104  24.000000
  Angles:   90.000000  90.000000   6.586776

Effective grid spacing dv^(1/3) = 0.1168

     iter     time        total  log10-change:
                         energy   eigst   dens  maxit
iter:   1 02:04:25  -181.688288   -1.18             1
iter:   2 02:04:32  -176.528558   -1.89  -1.07      2
iter:   3 02:04:39  -176.367165   -2.95  -1.72      3
iter:   4 02:04:46  -176.130809   -2.62  -1.79      4
iter:   5 02:04:53  -176.136743   -3.61  -1.99      5
iter:   6 02:05:01  -176.095826c  -3.23  -2.07      6
iter:   7 02:05:08  -176.113071c  -3.51  -2.28      7
iter:   8 02:05:15  -176.112392c  -4.34  -2.45      8
iter:   9 02:05:22  -176.090011c  -3.96  -2.50      9
iter:  10 02:05:30  -176.090223c  -4.83  -2.78     10
iter:  11 02:05:37  -176.093885c  -4.97  -3.05     11
iter:  12 02:05:44  -176.092843c  -5.08  -3.13     12
iter:  13 02:05:52  -176.091786c  -5.95  -3.40     13
iter:  14 02:05:59  -176.091899c  -6.83  -3.91c    14
iter:  15 02:06:07  -176.091656c  -6.83  -3.92c    15
iter:  16 02:06:14  -176.091732c  -7.75  -4.24c    16
iter:  17 02:06:21  -176.091683c  -7.86  -4.44c    17
iter:  18 02:06:28  -176.091737c  -8.23c -4.62c    18

Converged after 18 iterations.

Dipole moment: (5.813739, -11.968854, 4.691491) |e|*Ang

Energy contributions relative to reference atoms: (reference = -22607.818540)

Kinetic:       +116.956448
Potential:     -116.013357
External:        +0.000000
XC:            -178.164842
Entropy (-ST):   -0.143827
Local:           +1.201929
SIC:             +0.000000
--------------------------
Free energy:   -176.163651
Extrapolated:  -176.091737

Showing only first 2 kpts
 Kpt  Band  Eigenvalues  Occupancy
  0    42     -3.66025    1.98201
  0    43     -3.30708    1.52633
  0    44     -3.09776    0.56868
  0    45     -1.49821    0.00000

  1    42     -3.91245    1.99854
  1    43     -3.49319    1.90793
  1    44     -2.71286    0.01678
  1    45     -1.28273    0.00000


Fermi level: -3.19007

Gap: 0.209 eV
Transition (v -> c):
  (s=0, k=0, n=43, [-0.25, -0.25, 0.00]) -> (s=0, k=3, n=44, [0.25, 0.25, 0.00])
Direct/indirect transitions are different
Direct gap: 0.209 eV
Transition at: (s=0, k=0, n=43, [-0.25, -0.25, 0.00])

Forces in eV/Ang:
  0 C    -0.06102    0.22913   -0.12200
  1 C     0.02666   -0.21987   -0.12165
  2 C    -0.05597    0.22082   -0.12241
  3 C     0.04247   -0.17178   -0.10549
  4 C    -0.04458    0.17125   -0.10518
  5 C     0.06094   -0.22335   -0.12227
  6 C    -0.02347    0.21957   -0.12044
  7 C     0.06015   -0.22645   -0.12253
  8 C    -0.01885    0.20575   -0.03826
  9 C     0.04219   -0.26183   -0.04867
 10 C    -0.02365    0.26526   -0.05240
 11 C     0.02605   -0.26572   -0.05206
 12 C    -0.03925    0.25932   -0.04905
 13 C     0.01860   -0.21018   -0.03949
 14 C    -2.04588    1.84150    0.11877
 15 C    -0.07730    1.78918    0.12178
 16 C     0.10390   -0.42036    0.15303
 17 C    -3.52280   -0.76560    0.10797
 18 C     3.51270    0.77679    0.10931
 19 C    -0.10666    0.42438    0.15174
 20 C     0.07423   -1.79066    0.12211
 21 C     2.04496   -1.83941    0.11803

System changes: positions 

Initializing position-dependent things.

Density initialized from wave functions


Positions:
   0 C      0.000377   -0.002056   -1.678548    ( 0.0000,  0.0000,  0.0000)
   1 C      9.840111  -14.201392   -1.678948    ( 0.0000,  0.0000,  0.0000)
   2 C      9.839995  -12.784612   -1.678687    ( 0.0000,  0.0000,  0.0000)
   3 C     19.680200  -26.983829   -1.677797    ( 0.0000,  0.0000,  0.0000)
   4 C     12.299865  -17.044963   -1.677786    ( 0.0000,  0.0000,  0.0000)
   5 C      6.150039   -7.809483   -1.678671    ( 0.0000,  0.0000,  0.0000)
   6 C     14.759946  -21.305661   -1.678918    ( 0.0000,  0.0000,  0.0000)
   7 C      8.609731  -12.070435   -1.678554    ( 0.0000,  0.0000,  0.0000)
   8 C      8.609983  -10.654203   -1.676055    ( 0.0000,  0.0000,  0.0000)
   9 C     18.449894  -24.852810   -1.676624    ( 0.0000,  0.0000,  0.0000)
  10 C     11.069823  -14.914683   -1.676749    ( 0.0000,  0.0000,  0.0000)
  11 C      4.920284   -5.679445   -1.676736    ( 0.0000,  0.0000,  0.0000)
  12 C     13.530108  -19.175963   -1.676653    ( 0.0000,  0.0000,  0.0000)
  13 C      7.380016   -9.939913   -1.676090    ( 0.0000,  0.0000,  0.0000)
  14 C      0.040149    0.088049    1.678138    ( 0.0000,  0.0000,  0.0000)
  15 C      9.742791  -14.216940    1.678684    ( 0.0000,  0.0000,  0.0000)
  16 C      9.851245  -12.778384    1.680254    ( 0.0000,  0.0000,  0.0000)
  17 C     19.562150  -26.886414    1.677836    ( 0.0000,  0.0000,  0.0000)
  18 C     12.370400  -17.109609    1.677860    ( 0.0000,  0.0000,  0.0000)
  19 C      6.091308   -7.782953    1.680218    ( 0.0000,  0.0000,  0.0000)
  20 C     14.809816  -21.257501    1.678707    ( 0.0000,  0.0000,  0.0000)
  21 C      8.522484  -12.127883    1.678120    ( 0.0000,  0.0000,  0.0000)

Unit cell:
           periodic     x           y           z      points  spacing
  1. axis:    yes    7.380000   -8.521690    0.000000    48     0.0269
  2. axis:    yes   15.990000  -23.434647    0.000000   120     0.0271
  3. axis:    no     0.000000    0.000000   24.000000    96     0.2500

  Lengths:  11.273136  28.370104  24.000000
  Angles:   90.000000  90.000000   6.586776

Effective grid spacing dv^(1/3) = 0.1168

     iter     time        total  log10-change:
                         energy   eigst   dens  maxit
iter:   1 02:06:36  -177.382379   -1.70             1
iter:   2 02:06:43  -176.996772   -2.93  -1.68      2
iter:   3 02:06:50  -176.810657   -3.24  -1.97      3
iter:   4 02:06:57  -176.636400   -2.93  -2.11      4
iter:   5 02:07:03  -176.640849   -4.36  -2.34      5
iter:   6 02:07:11  -176.644215c  -4.24  -2.40      6
iter:   7 02:07:18  -176.639199c  -3.67  -2.55      7
iter:   8 02:07:25  -176.631085c  -4.21  -2.24      8
iter:   9 02:07:32  -176.627697c  -5.56  -2.98      9
iter:  10 02:07:38  -176.626333c  -4.91  -2.96     10
iter:  11 02:07:46  -176.634386c  -5.10  -3.01     11
iter:  12 02:07:53  -176.634104c  -5.90  -3.14     12
iter:  13 02:08:00  -176.633235c  -6.80  -3.20     13
iter:  14 02:08:07  -176.631071c  -6.22  -3.29     14
iter:  15 02:08:15  -176.630088c  -6.60  -3.72c    15
iter:  16 02:08:23  -176.630390c  -7.63  -4.25c    16
iter:  17 02:08:30  -176.629994c  -7.63  -4.28c    17
iter:  18 02:08:38  -176.630092c  -8.49c -4.32c    18

Converged after 18 iterations.

Dipole moment: (8.788683, -16.134084, 4.364981) |e|*Ang

Energy contributions relative to reference atoms: (reference = -22607.818540)

Kinetic:       +128.225515
Potential:     -124.806829
External:        +0.000000
XC:            -181.194582
Entropy (-ST):   -0.104181
Local:           +1.197895
SIC:             +0.000000
--------------------------
Free energy:   -176.682183
Extrapolated:  -176.630092

Showing only first 2 kpts
 Kpt  Band  Eigenvalues  Occupancy
  0    42     -3.72943    1.99557
  0    43     -3.27253    1.64698
  0    44     -2.96770    0.36243
  0    45     -1.45986    0.00000

  1    42     -3.94168    1.99947
  1    43     -3.59905    1.98376
  1    44     -2.60682    0.01192
  1    45     -0.95697    0.00000


Fermi level: -3.11852

Gap: 0.305 eV
Transition (v -> c):
  (s=0, k=3, n=43, [0.25, 0.25, 0.00]) -> (s=0, k=3, n=44, [0.25, 0.25, 0.00])
No difference between direct/indirect transitions

Forces in eV/Ang:
  0 C    -0.01181   -0.06562   -0.11796
  1 C    -0.01721    0.09640   -0.11559
  2 C     0.00764   -0.07214   -0.12995
  3 C    -0.01721    0.07578   -0.10701
  4 C     0.01815   -0.07666   -0.10709
  5 C    -0.00671    0.07116   -0.12969
  6 C     0.01918   -0.09761   -0.11471
  7 C     0.01369    0.06486   -0.11850
  8 C     0.01203   -0.07350   -0.04318
  9 C     0.00263    0.05573   -0.04815
 10 C     0.01034   -0.07872   -0.05088
 11 C    -0.00888    0.07728   -0.05059
 12 C    -0.00142   -0.05628   -0.04816
 13 C    -0.01132    0.07236   -0.04409
 14 C    -1.87516    1.13620    0.12856
 15 C     0.67683    1.26429    0.12152
 16 C    -0.83760   -0.61794    0.14569
 17 C    -1.37898    0.63057    0.11516
 18 C     1.37706   -0.62697    0.11686
 19 C     0.83618    0.61594    0.14478
 20 C    -0.67085   -1.26814    0.12205
 21 C     1.87828   -1.14408    0.12832

System changes: positions 

Initializing position-dependent things.

Density initialized from wave functions


Positions:
   0 C     -0.000021   -0.003787   -1.683228    ( 0.0000,  0.0000,  0.0000)
   1 C      9.839751  -14.198973   -1.683681    ( 0.0000,  0.0000,  0.0000)
   2 C      9.840035  -12.786554   -1.683741    ( 0.0000,  0.0000,  0.0000)
   3 C     19.679914  -26.981804   -1.681900    ( 0.0000,  0.0000,  0.0000)
   4 C     12.300191  -17.047032   -1.681888    ( 0.0000,  0.0000,  0.0000)
   5 C      6.150050   -7.807578   -1.683711    ( 0.0000,  0.0000,  0.0000)
   6 C     14.760388  -21.308118   -1.683614    ( 0.0000,  0.0000,  0.0000)
   7 C      8.610210  -12.068746   -1.683252    ( 0.0000,  0.0000,  0.0000)
   8 C      8.610253  -10.656233   -1.677676    ( 0.0000,  0.0000,  0.0000)
   9 C     18.450063  -24.851432   -1.678583    ( 0.0000,  0.0000,  0.0000)
  10 C     11.069985  -14.916567   -1.678832    ( 0.0000,  0.0000,  0.0000)
  11 C      4.920202   -5.677615   -1.678807    ( 0.0000,  0.0000,  0.0000)
  12 C     13.529983  -19.177377   -1.678622    ( 0.0000,  0.0000,  0.0000)
  13 C      7.379765   -9.937937   -1.677750    ( 0.0000,  0.0000,  0.0000)
  14 C     -0.005737    0.151226    1.682978    ( 0.0000,  0.0000,  0.0000)
  15 C      9.733607  -14.183334    1.683502    ( 0.0000,  0.0000,  0.0000)
  16 C      9.836058  -12.797877    1.686302    ( 0.0000,  0.0000,  0.0000)
  17 C     19.483955  -26.846659    1.682184    ( 0.0000,  0.0000,  0.0000)
  18 C     12.448461  -17.149177    1.682266    ( 0.0000,  0.0000,  0.0000)
  19 C      6.106398   -7.763440    1.686225    ( 0.0000,  0.0000,  0.0000)
  20 C     14.819122  -21.291196    1.683548    ( 0.0000,  0.0000,  0.0000)
  21 C      8.568426  -12.191262    1.682946    ( 0.0000,  0.0000,  0.0000)

Unit cell:
           periodic     x           y           z      points  spacing
  1. axis:    yes    7.380000   -8.521690    0.000000    48     0.0269
  2. axis:    yes   15.990000  -23.434647    0.000000   120     0.0271
  3. axis:    no     0.000000    0.000000   24.000000    96     0.2500

  Lengths:  11.273136  28.370104  24.000000
  Angles:   90.000000  90.000000   6.586776

Effective grid spacing dv^(1/3) = 0.1168

     iter     time        total  log10-change:
                         energy   eigst   dens  maxit
iter:   1 02:08:45  -177.983679   -1.31             1
iter:   2 02:08:53  -177.392649   -2.60  -1.52      2
iter:   3 02:09:01  -177.145453   -2.96  -1.82      3
iter:   4 02:09:07  -176.957662   -2.88  -1.98      4
iter:   5 02:09:15  -176.887394   -3.03  -2.14      5
iter:   6 02:09:22  -176.891439   -4.19  -2.21      6
iter:   7 02:09:29  -176.886446c  -3.34  -2.16      7
iter:   8 02:09:36  -176.926354c  -3.75  -2.55      8
iter:   9 02:09:44  -176.918895c  -3.52  -2.44      9
iter:  10 02:09:51  -176.897613c  -4.43  -2.54     10
iter:  11 02:09:59  -176.896480c  -5.52  -2.80     11
iter:  12 02:10:06  -176.885070c  -4.69  -2.84     12
iter:  13 02:10:13  -176.884311c  -5.49  -3.58c    13
iter:  14 02:10:21  -176.887641c  -5.70  -3.51     14
iter:  15 02:10:29  -176.884753c  -5.84  -3.46     15
iter:  16 02:10:37  -176.885595c  -7.01  -3.78c    16
iter:  17 02:10:44  -176.886100c  -6.87  -4.22c    17
iter:  18 02:10:53  -176.885542c  -7.16  -4.05c    18
iter:  19 02:11:01  -176.885620c  -8.65c -4.59c    19

Converged after 19 iterations.

Dipole moment: (9.851784, -17.770627, 4.060987) |e|*Ang

Energy contributions relative to reference atoms: (reference = -22607.818540)

Kinetic:       +144.328180
Potential:     -137.140475
External:        +0.000000
XC:            -185.218468
Entropy (-ST):   -0.086726
Local:           +1.188506
SIC:             +0.000000
--------------------------
Free energy:   -176.928983
Extrapolated:  -176.885620

Showing only first 2 kpts
 Kpt  Band  Eigenvalues  Occupancy
  0    42     -3.89776    1.99943
  0    43     -3.26212    1.71757
  0    44     -2.89716    0.27306
  0    45     -1.38384    0.00000

  1    42     -3.78119    1.99817
  1    43     -3.77112    1.99798
  1    44     -2.58694    0.01412
  1    45     -0.60649    0.00000


Fermi level: -3.08160

Gap: 0.365 eV
Transition (v -> c):
  (s=0, k=3, n=43, [0.25, 0.25, 0.00]) -> (s=0, k=3, n=44, [0.25, 0.25, 0.00])
No difference between direct/indirect transitions

Forces in eV/Ang:
  0 C     0.00836    0.15865   -0.11142
  1 C     0.01279   -0.17918   -0.10764
  2 C     0.00938    0.16913   -0.13103
  3 C     0.00904   -0.16218   -0.10353
  4 C    -0.00762    0.16155   -0.10392
  5 C    -0.00805   -0.17077   -0.13030
  6 C    -0.01162    0.17771   -0.10730
  7 C    -0.00769   -0.15890   -0.11135
  8 C    -0.01263    0.15921   -0.05695
  9 C     0.01199   -0.14630   -0.05839
 10 C    -0.01719    0.15071   -0.05975
 11 C     0.01786   -0.15111   -0.05953
 12 C    -0.01124    0.14525   -0.05810
 13 C     0.01445   -0.15909   -0.05714
 14 C     1.57108    0.49459    0.13683
 15 C    -0.13248   -1.63257    0.11812
 16 C     0.34582    0.10199    0.12966
 17 C    -0.02850   -0.61717    0.12011
 18 C     0.03259    0.60927    0.12190
 19 C    -0.33474   -0.11311    0.12967
 20 C     0.13768    1.62511    0.11898
 21 C    -1.58099   -0.48398    0.13773

System changes: positions 

Initializing position-dependent things.

Density initialized from wave functions


Positions:
   0 C      0.000089   -0.002234   -1.684291    ( 0.0000,  0.0000,  0.0000)
   1 C      9.839851  -14.200704   -1.684687    ( 0.0000,  0.0000,  0.0000)
   2 C      9.840182  -12.784887   -1.685016    ( 0.0000,  0.0000,  0.0000)
   3 C     19.679959  -26.983408   -1.682910    ( 0.0000,  0.0000,  0.0000)
   4 C     12.300161  -17.045433   -1.682902    ( 0.0000,  0.0000,  0.0000)
   5 C      6.149914   -7.809260   -1.684980    ( 0.0000,  0.0000,  0.0000)
   6 C     14.760298  -21.306403   -1.684617    ( 0.0000,  0.0000,  0.0000)
   7 C      8.610105  -12.070301   -1.684314    ( 0.0000,  0.0000,  0.0000)
   8 C      8.610142  -10.654662   -1.678251    ( 0.0000,  0.0000,  0.0000)
   9 C     18.450166  -24.852840   -1.679149    ( 0.0000,  0.0000,  0.0000)
  10 C     11.069833  -14.915147   -1.679407    ( 0.0000,  0.0000,  0.0000)
  11 C      4.920356   -5.679038   -1.679380    ( 0.0000,  0.0000,  0.0000)
  12 C     13.529886  -19.175977   -1.679184    ( 0.0000,  0.0000,  0.0000)
  13 C      7.379896   -9.939504   -1.678326    ( 0.0000,  0.0000,  0.0000)
  14 C      0.009531    0.152809    1.684337    ( 0.0000,  0.0000,  0.0000)
  15 C      9.736211  -14.200217    1.684634    ( 0.0000,  0.0000,  0.0000)
  16 C      9.838071  -12.796825    1.687495    ( 0.0000,  0.0000,  0.0000)
  17 C     19.488765  -26.855265    1.683373    ( 0.0000,  0.0000,  0.0000)
  18 C     12.443707  -17.140667    1.683474    ( 0.0000,  0.0000,  0.0000)
  19 C      6.104510   -7.764622    1.687420    ( 0.0000,  0.0000,  0.0000)
  20 C     14.816584  -21.274398    1.684688    ( 0.0000,  0.0000,  0.0000)
  21 C      8.553059  -12.192740    1.684316    ( 0.0000,  0.0000,  0.0000)

Unit cell:
           periodic     x           y           z      points  spacing
  1. axis:    yes    7.380000   -8.521690    0.000000    48     0.0269
  2. axis:    yes   15.990000  -23.434647    0.000000   120     0.0271
  3. axis:    no     0.000000    0.000000   24.000000    96     0.2500

  Lengths:  11.273136  28.370104  24.000000
  Angles:   90.000000  90.000000   6.586776

Effective grid spacing dv^(1/3) = 0.1168

     iter     time        total  log10-change:
                         energy   eigst   dens  maxit
iter:   1 02:11:09  -176.980100   -2.63             1
iter:   2 02:11:16  -176.970144   -4.19  -2.38      2
iter:   3 02:11:23  -176.950464c  -3.41  -2.45      3
iter:   4 02:11:30  -176.953449c  -5.12  -2.88      4
iter:   5 02:11:37  -176.953116c  -4.48  -2.92      5
iter:   6 02:11:44  -176.952494c  -5.40  -3.11      6
iter:   7 02:11:51  -176.952025c  -5.27  -3.35      7
iter:   8 02:11:58  -176.952250c  -6.03  -3.57c     8
iter:   9 02:12:06  -176.952357c  -6.18  -3.80c     9
iter:  10 02:12:13  -176.952299c  -7.12  -3.99c    10
iter:  11 02:12:20  -176.952338c  -6.66  -4.15c    11
iter:  12 02:12:28  -176.952320c  -7.39  -4.36c    12
iter:  13 02:12:36  -176.952318c  -8.45c -4.78c    13

Converged after 13 iterations.

Dipole moment: (10.833643, -19.237284, 3.932233) |e|*Ang

Energy contributions relative to reference atoms: (reference = -22607.818540)

Kinetic:       +143.151609
Potential:     -136.304506
External:        +0.000000
XC:            -184.943297
Entropy (-ST):   -0.082218
Local:           +1.184985
SIC:             +0.000000
--------------------------
Free energy:   -176.993427
Extrapolated:  -176.952318

Showing only first 2 kpts
 Kpt  Band  Eigenvalues  Occupancy
  0    42     -3.88143    1.99956
  0    43     -3.22711    1.73396
  0    44     -2.84789    0.25622
  0    45     -1.38283    0.00000

  1    42     -3.89973    1.99963
  1    43     -3.76237    1.99855
  1    44     -2.52992    0.01215
  1    45     -0.58443    0.00000


Fermi level: -3.03966

Gap: 0.379 eV
Transition (v -> c):
  (s=0, k=3, n=43, [0.25, 0.25, 0.00]) -> (s=0, k=3, n=44, [0.25, 0.25, 0.00])
No difference between direct/indirect transitions

Forces in eV/Ang:
  0 C    -0.00429   -0.04921   -0.10930
  1 C     0.00900    0.04740   -0.10649
  2 C    -0.00525   -0.05141   -0.12983
  3 C     0.00976    0.05304   -0.10389
  4 C    -0.00888   -0.05395   -0.10430
  5 C     0.00659    0.05051   -0.12923
  6 C    -0.00826   -0.04803   -0.10618
  7 C     0.00531    0.04853   -0.10937
  8 C    -0.00120   -0.04797   -0.05708
  9 C     0.00252    0.04552   -0.05897
 10 C     0.00107   -0.04354   -0.05889
 11 C     0.00003    0.04268   -0.05865
 12 C    -0.00095   -0.04623   -0.05866
 13 C     0.00238    0.04742   -0.05716
 14 C    -0.18489    0.10903    0.13842
 15 C     0.99680   -0.27712    0.11910
 16 C    -0.09475   -0.27170    0.12945
 17 C     0.15523    0.21353    0.12074
 18 C    -0.14910   -0.22197    0.12233
 19 C     0.09490    0.26527    0.12948
 20 C    -0.99656    0.26786    0.11983
 21 C     0.19112   -0.10333    0.13915

System changes: positions 

Initializing position-dependent things.

Density initialized from wave functions


Positions:
   0 C      0.000031   -0.002137   -1.686233    ( 0.0000,  0.0000,  0.0000)
   1 C      9.840068  -14.200926   -1.686567    ( 0.0000,  0.0000,  0.0000)
   2 C      9.840100  -12.784780   -1.687329    ( 0.0000,  0.0000,  0.0000)
   3 C     19.680180  -26.983432   -1.684759    ( 0.0000,  0.0000,  0.0000)
   4 C     12.299955  -17.045423   -1.684758    ( 0.0000,  0.0000,  0.0000)
   5 C      6.150022   -7.809388   -1.687281    ( 0.0000,  0.0000,  0.0000)
   6 C     14.760095  -21.306194   -1.686493    ( 0.0000,  0.0000,  0.0000)
   7 C      8.610177  -12.070405   -1.686257    ( 0.0000,  0.0000,  0.0000)
   8 C      8.610052  -10.654547   -1.679284    ( 0.0000,  0.0000,  0.0000)
   9 C     18.450271  -24.852952   -1.680205    ( 0.0000,  0.0000,  0.0000)
  10 C     11.069762  -14.914967   -1.680464    ( 0.0000,  0.0000,  0.0000)
  11 C      4.920444   -5.679231   -1.680433    ( 0.0000,  0.0000,  0.0000)
  12 C     13.529808  -19.175880   -1.680234    ( 0.0000,  0.0000,  0.0000)
  13 C      7.380010   -9.939627   -1.679360    ( 0.0000,  0.0000,  0.0000)
  14 C      0.013125    0.154325    1.686812    ( 0.0000,  0.0000,  0.0000)
  15 C      9.751727  -14.210807    1.686744    ( 0.0000,  0.0000,  0.0000)
  16 C      9.838514  -12.799974    1.689765    ( 0.0000,  0.0000,  0.0000)
  17 C     19.492658  -26.857089    1.685532    ( 0.0000,  0.0000,  0.0000)
  18 C     12.439923  -17.139003    1.685662    ( 0.0000,  0.0000,  0.0000)
  19 C      6.104115   -7.761613    1.689691    ( 0.0000,  0.0000,  0.0000)
  20 C     14.801085  -21.263974    1.686812    ( 0.0000,  0.0000,  0.0000)
  21 C      8.549519  -12.194119    1.686806    ( 0.0000,  0.0000,  0.0000)

Unit cell:
           periodic     x           y           z      points  spacing
  1. axis:    yes    7.380000   -8.521690    0.000000    48     0.0269
  2. axis:    yes   15.990000  -23.434647    0.000000   120     0.0271
  3. axis:    no     0.000000    0.000000   24.000000    96     0.2500

  Lengths:  11.273136  28.370104  24.000000
  Angles:   90.000000  90.000000   6.586776

Effective grid spacing dv^(1/3) = 0.1168

     iter     time        total  log10-change:
                         energy   eigst   dens  maxit
iter:   1 02:12:44  -177.040307   -2.89             1
iter:   2 02:12:51  -176.989281   -3.74  -1.99      2
iter:   3 02:12:58  -176.988759   -4.93  -2.61      3
iter:   4 02:13:05  -176.987599c  -4.44  -2.70      4
iter:   5 02:13:13  -176.985939c  -4.87  -2.98      5
iter:   6 02:13:20  -176.985963c  -5.38  -3.21      6
iter:   7 02:13:28  -176.987014c  -5.46  -3.32      7
iter:   8 02:13:35  -176.985986c  -6.40  -3.68c     8
iter:   9 02:13:42  -176.985007c  -6.25  -3.93c     9
iter:  10 02:13:50  -176.986060c  -6.45  -3.73c    10
iter:  11 02:13:57  -176.986022c  -7.37  -4.30c    11
iter:  12 02:14:04  -176.986027c  -7.93  -4.48c    12
iter:  13 02:14:11  -176.986035c  -8.15c -4.71c    13

Converged after 13 iterations.

Dipole moment: (10.641106, -19.123567, 3.998285) |e|*Ang

Energy contributions relative to reference atoms: (reference = -22607.818540)

Kinetic:       +140.213310
Potential:     -134.079457
External:        +0.000000
XC:            -184.258765
Entropy (-ST):   -0.084772
Local:           +1.181263
SIC:             +0.000000
--------------------------
Free energy:   -177.028421
Extrapolated:  -176.986035

Showing only first 2 kpts
 Kpt  Band  Eigenvalues  Occupancy
  0    42     -3.86331    1.99938
  0    43     -3.23776    1.72319
  0    44     -2.86768    0.26656
  0    45     -1.39596    0.00000

  1    42     -3.90691    1.99960
  1    43     -3.74544    1.99800
  1    44     -2.55453    0.01334
  1    45     -0.63769    0.00000


Fermi level: -3.05490

Gap: 0.370 eV
Transition (v -> c):
  (s=0, k=3, n=43, [0.25, 0.25, 0.00]) -> (s=0, k=3, n=44, [0.25, 0.25, 0.00])
No difference between direct/indirect transitions

Forces in eV/Ang:
  0 C     0.00746   -0.05965   -0.10718
  1 C    -0.00929    0.06763   -0.10492
  2 C     0.01062   -0.06398   -0.12492
  3 C    -0.01206    0.05365   -0.10057
  4 C     0.01353   -0.05467   -0.10083
  5 C    -0.01007    0.06365   -0.12448
  6 C     0.01032   -0.06826   -0.10460
  7 C    -0.00601    0.05853   -0.10727
  8 C     0.01305   -0.05819   -0.05997
  9 C    -0.01270    0.05920   -0.06251
 10 C     0.01570   -0.06418   -0.06178
 11 C    -0.01450    0.06317   -0.06150
 12 C     0.01386   -0.05970   -0.06226
 13 C    -0.01191    0.05755   -0.05994
 14 C    -0.14137    0.38202    0.13704
 15 C     0.63541   -0.14589    0.11633
 16 C    -0.08959   -0.31491    0.12707
 17 C    -0.03087    0.16177    0.11877
 18 C     0.03619   -0.17192    0.12014
 19 C     0.08860    0.31015    0.12717
 20 C    -0.62783    0.14713    0.11687
 21 C     0.13961   -0.38393    0.13770

System changes: positions 

Initializing position-dependent things.

Density initialized from wave functions


Positions:
   0 C      0.000137   -0.002677   -1.698293    ( 0.0000,  0.0000,  0.0000)
   1 C      9.840370  -14.200485   -1.698339    ( 0.0000,  0.0000,  0.0000)
   2 C      9.840365  -12.785411   -1.701420    ( 0.0000,  0.0000,  0.0000)
   3 C     19.680369  -26.982869   -1.696061    ( 0.0000,  0.0000,  0.0000)
   4 C     12.299890  -17.046084   -1.696095    ( 0.0000,  0.0000,  0.0000)
   5 C      6.149882   -7.808852   -1.701313    ( 0.0000,  0.0000,  0.0000)
   6 C     14.759907  -21.306723   -1.698224    ( 0.0000,  0.0000,  0.0000)
   7 C      8.610191  -12.069940   -1.698324    ( 0.0000,  0.0000,  0.0000)
   8 C      8.610251  -10.655055   -1.685598    ( 0.0000,  0.0000,  0.0000)
   9 C     18.450227  -24.852443   -1.686789    ( 0.0000,  0.0000,  0.0000)
  10 C     11.070048  -14.915532   -1.687061    ( 0.0000,  0.0000,  0.0000)
  11 C      4.920280   -5.678757   -1.687002    ( 0.0000,  0.0000,  0.0000)
  12 C     13.529993  -19.176470   -1.686790    ( 0.0000,  0.0000,  0.0000)
  13 C      7.379947   -9.939184   -1.685686    ( 0.0000,  0.0000,  0.0000)
  14 C      0.023816    0.195327    1.701872    ( 0.0000,  0.0000,  0.0000)
  15 C      9.815621  -14.255319    1.699743    ( 0.0000,  0.0000,  0.0000)
  16 C      9.837719  -12.824797    1.704062    ( 0.0000,  0.0000,  0.0000)
  17 C     19.481032  -26.854762    1.698672    ( 0.0000,  0.0000,  0.0000)
  18 C     12.452071  -17.142229    1.698971    ( 0.0000,  0.0000,  0.0000)
  19 C      6.105094   -7.737476    1.703987    ( 0.0000,  0.0000,  0.0000)
  20 C     14.737635  -21.219952    1.699884    ( 0.0000,  0.0000,  0.0000)
  21 C      8.538793  -12.234753    1.701939    ( 0.0000,  0.0000,  0.0000)

Unit cell:
           periodic     x           y           z      points  spacing
  1. axis:    yes    7.380000   -8.521690    0.000000    48     0.0269
  2. axis:    yes   15.990000  -23.434647    0.000000   120     0.0271
  3. axis:    no     0.000000    0.000000   24.000000    96     0.2500

  Lengths:  11.273136  28.370104  24.000000
  Angles:   90.000000  90.000000   6.586776

Effective grid spacing dv^(1/3) = 0.1168

     iter     time        total  log10-change:
                         energy   eigst   dens  maxit
iter:   1 02:14:19  -177.641770   -1.56             1
iter:   2 02:14:26  -177.159185   -2.79  -1.62      2
iter:   3 02:14:33  -177.144411   -3.81  -1.99      3
iter:   4 02:14:40  -177.116482c  -3.15  -2.07      4
iter:   5 02:14:47  -177.107812c  -3.80  -2.50      5
iter:   6 02:14:55  -177.107773c  -4.63  -2.64      6
iter:   7 02:15:02  -177.114505c  -4.18  -2.70      7
iter:   8 02:15:08  -177.107297c  -5.03  -3.03      8
iter:   9 02:15:15  -177.105419c  -5.86  -3.35      9
iter:  10 02:15:22  -177.109081c  -5.41  -3.26     10
iter:  11 02:15:30  -177.107914c  -6.06  -3.56c    11
iter:  12 02:15:37  -177.107993c  -6.78  -4.05c    12
iter:  13 02:15:43  -177.108062c  -7.36  -4.22c    13
iter:  14 02:15:50  -177.108143c  -7.85  -4.54c    14
iter:  15 02:15:58  -177.108073c  -8.40c -4.65c    15

Converged after 15 iterations.

Dipole moment: (11.417043, -20.894612, 3.843479) |e|*Ang

Energy contributions relative to reference atoms: (reference = -22607.818540)

Kinetic:       +134.360473
Potential:     -129.717985
External:        +0.000000
XC:            -182.876844
Entropy (-ST):   -0.081516
Local:           +1.167041
SIC:             +0.000000
--------------------------
Free energy:   -177.148831
Extrapolated:  -177.108073

Showing only first 2 kpts
 Kpt  Band  Eigenvalues  Occupancy
  0    42     -3.88366    1.99958
  0    43     -3.22802    1.74216
  0    44     -2.83767    0.23989
  0    45     -1.36712    0.00000

  1    42     -3.99162    1.99986
  1    43     -3.76937    1.99868
  1    44     -2.57672    0.01986
  1    45     -0.79474    0.00000


Fermi level: -3.03696

Gap: 0.390 eV
Transition (v -> c):
  (s=0, k=0, n=43, [-0.25, -0.25, 0.00]) -> (s=0, k=0, n=44, [-0.25, -0.25, 0.00])
No difference between direct/indirect transitions

Forces in eV/Ang:
  0 C     0.00033    0.00897   -0.08825
  1 C    -0.01071    0.00378   -0.08818
  2 C     0.00079    0.00094   -0.09622
  3 C    -0.01231   -0.01613   -0.08508
  4 C     0.01413    0.01536   -0.08500
  5 C    -0.00080   -0.00033   -0.09655
  6 C     0.01245   -0.00433   -0.08814
  7 C     0.00097   -0.00962   -0.08810
  8 C     0.00101    0.00355   -0.07576
  9 C    -0.00120   -0.00264   -0.08054
 10 C     0.00116   -0.00312   -0.07530
 11 C     0.00025    0.00226   -0.07477
 12 C     0.00193    0.00182   -0.08038
 13 C    -0.00018   -0.00482   -0.07505
 14 C    -0.09317    0.72316    0.12903
 15 C    -0.10855    0.16358    0.10457
 16 C     0.20260   -0.23923    0.10590
 17 C    -0.20476    0.11433    0.11221
 18 C     0.20485   -0.12583    0.11236
 19 C    -0.20587    0.24617    0.10658
 20 C     0.09023   -0.15226    0.10438
 21 C     0.10313   -0.72407    0.12951

System changes: positions 

Initializing position-dependent things.

Density initialized from wave functions


Positions:
   0 C     -0.000084   -0.002211   -1.713429    ( 0.0000,  0.0000,  0.0000)
   1 C      9.840854  -14.200960   -1.713182    ( 0.0000,  0.0000,  0.0000)
   2 C      9.840276  -12.785170   -1.718917    ( 0.0000,  0.0000,  0.0000)
   3 C     19.680793  -26.983210   -1.710278    ( 0.0000,  0.0000,  0.0000)
   4 C     12.299629  -17.045865   -1.710348    ( 0.0000,  0.0000,  0.0000)
   5 C      6.150126   -7.809199   -1.718752    ( 0.0000,  0.0000,  0.0000)
   6 C     14.759590  -21.306358   -1.713020    ( 0.0000,  0.0000,  0.0000)
   7 C      8.610565  -12.070492   -1.713467    ( 0.0000,  0.0000,  0.0000)
   8 C      8.610093  -10.654752   -1.694007    ( 0.0000,  0.0000,  0.0000)
   9 C     18.450625  -24.852871   -1.695633    ( 0.0000,  0.0000,  0.0000)
  10 C     11.069925  -14.915183   -1.695832    ( 0.0000,  0.0000,  0.0000)
  11 C      4.920572   -5.679221   -1.695730    ( 0.0000,  0.0000,  0.0000)
  12 C     13.529770  -19.176159   -1.695604    ( 0.0000,  0.0000,  0.0000)
  13 C      7.380268   -9.939589   -1.694100    ( 0.0000,  0.0000,  0.0000)
  14 C      0.030529    0.260243    1.721013    ( 0.0000,  0.0000,  0.0000)
  15 C      9.879218  -14.298888    1.716257    ( 0.0000,  0.0000,  0.0000)
  16 C      9.841566  -12.856265    1.722123    ( 0.0000,  0.0000,  0.0000)
  17 C     19.454052  -26.843844    1.715409    ( 0.0000,  0.0000,  0.0000)
  18 C     12.479564  -17.154253    1.715897    ( 0.0000,  0.0000,  0.0000)
  19 C      6.101399   -7.706573    1.722055    ( 0.0000,  0.0000,  0.0000)
  20 C     14.673860  -21.176872    1.716476    ( 0.0000,  0.0000,  0.0000)
  21 C      8.532456  -12.299133    1.721165    ( 0.0000,  0.0000,  0.0000)

Unit cell:
           periodic     x           y           z      points  spacing
  1. axis:    yes    7.380000   -8.521690    0.000000    48     0.0269
  2. axis:    yes   15.990000  -23.434647    0.000000   120     0.0271
  3. axis:    no     0.000000    0.000000   24.000000    96     0.2500

  Lengths:  11.273136  28.370104  24.000000
  Angles:   90.000000  90.000000   6.586776

Effective grid spacing dv^(1/3) = 0.1168

     iter     time        total  log10-change:
                         energy   eigst   dens  maxit
iter:   1 02:16:06  -177.631530   -1.41             1
iter:   2 02:16:13  -177.270823   -2.68  -1.61      2
iter:   3 02:16:20  -177.245345   -3.68  -1.92      3
iter:   4 02:16:27  -177.192845   -2.93  -1.99      4
iter:   5 02:16:35  -177.196943   -3.66  -2.50      5
iter:   6 02:16:41  -177.193941c  -4.58  -2.51      6
iter:   7 02:16:48  -177.186359c  -4.20  -2.65      7
iter:   8 02:16:55  -177.190285c  -5.24  -3.09      8
iter:   9 02:17:02  -177.194355c  -5.39  -3.39      9
iter:  10 02:17:10  -177.191674c  -5.58  -3.27     10
iter:  11 02:17:17  -177.189641c  -6.03  -3.57c    11
iter:  12 02:17:24  -177.190290c  -6.86  -4.00c    12
iter:  13 02:17:31  -177.190246c  -6.75  -4.05c    13
iter:  14 02:17:39  -177.190302c  -7.83  -4.43c    14
iter:  15 02:17:46  -177.190212c  -8.27c -4.57c    15

Converged after 15 iterations.

Dipole moment: (13.197930, -23.731116, 3.263449) |e|*Ang

Energy contributions relative to reference atoms: (reference = -22607.818540)

Kinetic:       +131.605198
Potential:     -127.776767
External:        +0.000000
XC:            -182.129466
Entropy (-ST):   -0.066284
Local:           +1.143965
SIC:             +0.000000
--------------------------
Free energy:   -177.223355
Extrapolated:  -177.190212

Showing only first 2 kpts
 Kpt  Band  Eigenvalues  Occupancy
  0    42     -3.99689    1.99996
  0    43     -3.14061    1.81367
  0    44     -2.66670    0.15691
  0    45     -1.27552    0.00000

  1    42     -4.12429    1.99999
  1    43     -3.87634    1.99987
  1    44     -2.49322    0.02960
  1    45     -1.02448    0.00000


Fermi level: -2.91305

Gap: 0.474 eV
Transition (v -> c):
  (s=0, k=3, n=43, [0.25, 0.25, 0.00]) -> (s=0, k=0, n=44, [-0.25, -0.25, 0.00])
Direct/indirect transitions are different
Direct gap: 0.474 eV
Transition at: (s=0, k=0, n=43, [-0.25, -0.25, 0.00])

Forces in eV/Ang:
  0 C     0.02428   -0.06793   -0.05932
  1 C    -0.03421    0.07675   -0.06550
  2 C     0.02423   -0.06882   -0.05680
  3 C    -0.04011    0.04783   -0.06461
  4 C     0.04203   -0.04852   -0.06409
  5 C    -0.02455    0.06958   -0.05813
  6 C     0.03576   -0.07685   -0.06659
  7 C    -0.02279    0.06669   -0.05861
  8 C     0.02588   -0.06536   -0.09073
  9 C    -0.02862    0.06808   -0.09498
 10 C     0.02745   -0.07746   -0.08663
 11 C    -0.02632    0.07651   -0.08617
 12 C     0.02887   -0.06852   -0.09443
 13 C    -0.02557    0.06496   -0.08983
 14 C     0.18656    0.73201    0.10619
 15 C    -0.77934    0.21526    0.09240
 16 C     0.38183   -0.01125    0.07470
 17 C    -0.10310   -0.11683    0.10081
 18 C     0.10457    0.11746    0.09952
 19 C    -0.38356    0.01535    0.07575
 20 C     0.81389   -0.20485    0.09153
 21 C    -0.22128   -0.74922    0.10602

System changes: positions 

Initializing position-dependent things.

Density initialized from wave functions


Positions:
   0 C      0.000076   -0.003372   -1.717360    ( 0.0000,  0.0000,  0.0000)
   1 C      9.840620  -14.199743   -1.717156    ( 0.0000,  0.0000,  0.0000)
   2 C      9.840439  -12.786369   -1.723289    ( 0.0000,  0.0000,  0.0000)
   3 C     19.680512  -26.982183   -1.714095    ( 0.0000,  0.0000,  0.0000)
   4 C     12.299963  -17.046926   -1.714166    ( 0.0000,  0.0000,  0.0000)
   5 C      6.150000   -7.808017   -1.723130    ( 0.0000,  0.0000,  0.0000)
   6 C     14.759877  -21.307598   -1.716999    ( 0.0000,  0.0000,  0.0000)
   7 C      8.610456  -12.069364   -1.717389    ( 0.0000,  0.0000,  0.0000)
   8 C      8.610321  -10.655918   -1.696906    ( 0.0000,  0.0000,  0.0000)
   9 C     18.450445  -24.851788   -1.698691    ( 0.0000,  0.0000,  0.0000)
  10 C     11.070173  -14.916371   -1.698774    ( 0.0000,  0.0000,  0.0000)
  11 C      4.920375   -5.678070   -1.698658    ( 0.0000,  0.0000,  0.0000)
  12 C     13.529993  -19.177273   -1.698648    ( 0.0000,  0.0000,  0.0000)
  13 C      7.380074   -9.938449   -1.696992    ( 0.0000,  0.0000,  0.0000)
  14 C      0.029796    0.284085    1.726327    ( 0.0000,  0.0000,  0.0000)
  15 C      9.882689  -14.302015    1.720943    ( 0.0000,  0.0000,  0.0000)
  16 C      9.846370  -12.863014    1.726916    ( 0.0000,  0.0000,  0.0000)
  17 C     19.443540  -26.838924    1.720200    ( 0.0000,  0.0000,  0.0000)
  18 C     12.490192  -17.159307    1.720709    ( 0.0000,  0.0000,  0.0000)
  19 C      6.096601   -7.699891    1.726860    ( 0.0000,  0.0000,  0.0000)
  20 C     14.670846  -21.173830    1.721168    ( 0.0000,  0.0000,  0.0000)
  21 C      8.532810  -12.323070    1.726491    ( 0.0000,  0.0000,  0.0000)

Unit cell:
           periodic     x           y           z      points  spacing
  1. axis:    yes    7.380000   -8.521690    0.000000    48     0.0269
  2. axis:    yes   15.990000  -23.434647    0.000000   120     0.0271
  3. axis:    no     0.000000    0.000000   24.000000    96     0.2500

  Lengths:  11.273136  28.370104  24.000000
  Angles:   90.000000  90.000000   6.586776

Effective grid spacing dv^(1/3) = 0.1168

     iter     time        total  log10-change:
                         energy   eigst   dens  maxit
iter:   1 02:17:53  -177.280330   -2.61             1
iter:   2 02:18:00  -177.264238   -3.95  -2.37      2
iter:   3 02:18:07  -177.224605   -3.72  -2.44      3
iter:   4 02:18:15  -177.234051c  -4.89  -2.70      4
iter:   5 02:18:22  -177.224961c  -4.41  -2.77      5
iter:   6 02:18:29  -177.224582c  -4.93  -3.06      6
iter:   7 02:18:36  -177.229976c  -5.05  -3.17      7
iter:   8 02:18:44  -177.226584c  -5.80  -3.40      8
iter:   9 02:18:51  -177.227142c  -6.76  -3.90c     9
iter:  10 02:18:58  -177.227384c  -6.57  -3.98c    10
iter:  11 02:19:05  -177.226865c  -7.12  -4.10c    11
iter:  12 02:19:12  -177.226808c  -7.90  -4.43c    12
iter:  13 02:19:20  -177.227050c  -7.89  -4.41c    13
iter:  14 02:19:27  -177.227011c  -9.13c -5.08c    14

Converged after 14 iterations.

Dipole moment: (13.937230, -24.715619, 2.927520) |e|*Ang

Energy contributions relative to reference atoms: (reference = -22607.818540)

Kinetic:       +134.081399
Potential:     -129.718037
External:        +0.000000
XC:            -182.698547
Entropy (-ST):   -0.056170
Local:           +1.136259
SIC:             +0.000000
--------------------------
Free energy:   -177.255096
Extrapolated:  -177.227011

Showing only first 2 kpts
 Kpt  Band  Eigenvalues  Occupancy
  0    42     -4.06366    1.99999
  0    43     -3.09614    1.85282
  0    44     -2.56824    0.12060
  0    45     -1.20626    0.00000

  1    42     -4.18339    2.00000
  1    43     -3.92252    1.99996
  1    44     -2.41234    0.02664
  1    45     -1.03897    0.00000


Fermi level: -2.84286

Gap: 0.528 eV
Transition (v -> c):
  (s=0, k=3, n=43, [0.25, 0.25, 0.00]) -> (s=0, k=0, n=44, [-0.25, -0.25, 0.00])
Direct/indirect transitions are different
Direct gap: 0.528 eV
Transition at: (s=0, k=0, n=43, [-0.25, -0.25, 0.00])

Forces in eV/Ang:
  0 C     0.00091    0.06746   -0.05529
  1 C    -0.00204   -0.06835   -0.05840
  2 C    -0.00180    0.06878   -0.04809
  3 C    -0.00336   -0.07595   -0.06093
  4 C     0.00462    0.07561   -0.06048
  5 C     0.00240   -0.06872   -0.04941
  6 C     0.00316    0.06794   -0.05949
  7 C     0.00015   -0.06770   -0.05460
  8 C    -0.00324    0.07036   -0.09261
  9 C     0.00353   -0.06508   -0.09676
 10 C    -0.00492    0.06151   -0.09054
 11 C     0.00600   -0.06223   -0.09037
 12 C    -0.00331    0.06431   -0.09622
 13 C     0.00379   -0.07083   -0.09190
 14 C    -0.03929    0.43537    0.09766
 15 C    -0.46736    0.13611    0.08887
 16 C     0.29684    0.10423    0.06849
 17 C     0.10186   -0.10278    0.09568
 18 C    -0.10525    0.10501    0.09412
 19 C    -0.30518   -0.10251    0.06930
 20 C     0.45738   -0.14030    0.08798
 21 C     0.06304   -0.44150    0.09744

System changes: positions 

Initializing position-dependent things.

Density initialized from wave functions


Positions:
   0 C      0.000030   -0.002295   -1.721935    ( 0.0000,  0.0000,  0.0000)
   1 C      9.840624  -14.200862   -1.721829    ( 0.0000,  0.0000,  0.0000)
   2 C      9.840313  -12.785281   -1.728044    ( 0.0000,  0.0000,  0.0000)
   3 C     19.680493  -26.983455   -1.718704    ( 0.0000,  0.0000,  0.0000)
   4 C     12.300048  -17.045689   -1.718765    ( 0.0000,  0.0000,  0.0000)
   5 C      6.150180   -7.809125   -1.727921    ( 0.0000,  0.0000,  0.0000)
   6 C     14.759941  -21.306510   -1.721702    ( 0.0000,  0.0000,  0.0000)
   7 C      8.610568  -12.070469   -1.721942    ( 0.0000,  0.0000,  0.0000)
   8 C      8.610220  -10.654782   -1.701446    ( 0.0000,  0.0000,  0.0000)
   9 C     18.450627  -24.852897   -1.703468    ( 0.0000,  0.0000,  0.0000)
  10 C     11.070028  -14.915389   -1.703330    ( 0.0000,  0.0000,  0.0000)
  11 C      4.920589   -5.679100   -1.703199    ( 0.0000,  0.0000,  0.0000)
  12 C     13.529852  -19.176211   -1.703401    ( 0.0000,  0.0000,  0.0000)
  13 C      7.380217   -9.939618   -1.701513    ( 0.0000,  0.0000,  0.0000)
  14 C      0.024013    0.312836    1.732976    ( 0.0000,  0.0000,  0.0000)
  15 C      9.877538  -14.300173    1.726933    ( 0.0000,  0.0000,  0.0000)
  16 C      9.855670  -12.866038    1.732540    ( 0.0000,  0.0000,  0.0000)
  17 C     19.436674  -26.833568    1.726397    ( 0.0000,  0.0000,  0.0000)
  18 C     12.497043  -17.164680    1.726887    ( 0.0000,  0.0000,  0.0000)
  19 C      6.087067   -7.696894    1.732510    ( 0.0000,  0.0000,  0.0000)
  20 C     14.675860  -21.175984    1.727143    ( 0.0000,  0.0000,  0.0000)
  21 C      8.539210  -12.351959    1.733143    ( 0.0000,  0.0000,  0.0000)

Unit cell:
           periodic     x           y           z      points  spacing
  1. axis:    yes    7.380000   -8.521690    0.000000    48     0.0269
  2. axis:    yes   15.990000  -23.434647    0.000000   120     0.0271
  3. axis:    no     0.000000    0.000000   24.000000    96     0.2500

  Lengths:  11.273136  28.370104  24.000000
  Angles:   90.000000  90.000000   6.586776

Effective grid spacing dv^(1/3) = 0.1168

     iter     time        total  log10-change:
                         energy   eigst   dens  maxit
iter:   1 02:19:35  -177.352954   -2.45             1
iter:   2 02:19:42  -177.328175   -3.82  -2.27      2
iter:   3 02:19:50  -177.261643   -3.32  -2.34      3
iter:   4 02:19:57  -177.270601   -4.68  -2.64      4
iter:   5 02:20:04  -177.258867c  -4.45  -2.70      5
iter:   6 02:20:11  -177.253817c  -4.72  -2.96      6
iter:   7 02:20:18  -177.262173c  -4.68  -3.00      7
iter:   8 02:20:25  -177.258153c  -5.59  -3.24      8
iter:   9 02:20:32  -177.256655c  -5.91  -3.51      9
iter:  10 02:20:39  -177.257497c  -6.47  -3.73c    10
iter:  11 02:20:46  -177.257630c  -6.94  -3.94c    11
iter:  12 02:20:53  -177.257311c  -7.17  -4.17c    12
iter:  13 02:21:01  -177.257380c  -8.07c -4.43c    13

Converged after 13 iterations.

Dipole moment: (14.665814, -25.643863, 2.574340) |e|*Ang

Energy contributions relative to reference atoms: (reference = -22607.818540)

Kinetic:       +138.333205
Potential:     -133.037259
External:        +0.000000
XC:            -183.662023
Entropy (-ST):   -0.044121
Local:           +1.130758
SIC:             +0.000000
--------------------------
Free energy:   -177.279441
Extrapolated:  -177.257380

Showing only first 2 kpts
 Kpt  Band  Eigenvalues  Occupancy
  0    42     -4.14506    2.00000
  0    43     -3.02688    1.89423
  0    44     -2.42585    0.08417
  0    45     -1.16161    0.00000

  1    42     -4.21251    2.00000
  1    43     -3.97002    1.99999
  1    44     -2.28667    0.02161
  1    45     -1.00430    0.00000


Fermi level: -2.73835

Gap: 0.601 eV
Transition (v -> c):
  (s=0, k=3, n=43, [0.25, 0.25, 0.00]) -> (s=0, k=3, n=44, [0.25, 0.25, 0.00])
No difference between direct/indirect transitions

Forces in eV/Ang:
  0 C     0.00524   -0.09446   -0.04801
  1 C    -0.00138    0.08772   -0.05160
  2 C     0.00337   -0.09171   -0.03847
  3 C    -0.00149    0.09811   -0.05712
  4 C     0.00205   -0.09844   -0.05707
  5 C    -0.00201    0.09105   -0.03964
  6 C     0.00220   -0.08782   -0.05258
  7 C    -0.00480    0.09410   -0.04752
  8 C     0.00662   -0.08981   -0.09213
  9 C    -0.00502    0.09058   -0.09028
 10 C     0.00926   -0.08543   -0.08914
 11 C    -0.00876    0.08489   -0.08949
 12 C     0.00614   -0.09108   -0.08998
 13 C    -0.00596    0.08944   -0.09188
 14 C    -0.29105   -0.03622    0.08635
 15 C     0.06705    0.01805    0.08383
 16 C     0.20304    0.05459    0.06637
 17 C     0.27693   -0.24417    0.08735
 18 C    -0.28610    0.24316    0.08602
 19 C    -0.17868   -0.05939    0.06690
 20 C    -0.03650   -0.00563    0.08330
 21 C     0.25504    0.01714    0.08568

System changes: positions 

Initializing position-dependent things.

Density initialized from wave functions


Positions:
   0 C      0.000180   -0.003614   -1.724814    ( 0.0000,  0.0000,  0.0000)
   1 C      9.840524  -14.199643   -1.724796    ( 0.0000,  0.0000,  0.0000)
   2 C      9.840408  -12.786563   -1.730910    ( 0.0000,  0.0000,  0.0000)
   3 C     19.680357  -26.982213   -1.721730    ( 0.0000,  0.0000,  0.0000)
   4 C     12.300226  -17.046953   -1.721788    ( 0.0000,  0.0000,  0.0000)
   5 C      6.150126   -7.807860   -1.730817    ( 0.0000,  0.0000,  0.0000)
   6 C     14.760084  -21.307745   -1.724695    ( 0.0000,  0.0000,  0.0000)
   7 C      8.610454  -12.069171   -1.724804    ( 0.0000,  0.0000,  0.0000)
   8 C      8.610361  -10.655996   -1.704916    ( 0.0000,  0.0000,  0.0000)
   9 C     18.450525  -24.851626   -1.707001    ( 0.0000,  0.0000,  0.0000)
  10 C     11.070208  -14.916644   -1.706746    ( 0.0000,  0.0000,  0.0000)
  11 C      4.920446   -5.677874   -1.706614    ( 0.0000,  0.0000,  0.0000)
  12 C     13.529992  -19.177509   -1.706919    ( 0.0000,  0.0000,  0.0000)
  13 C      7.380107   -9.938424   -1.704969    ( 0.0000,  0.0000,  0.0000)
  14 C      0.019428    0.324068    1.737420    ( 0.0000,  0.0000,  0.0000)
  15 C      9.878132  -14.301471    1.730974    ( 0.0000,  0.0000,  0.0000)
  16 C      9.863142  -12.867061    1.736166    ( 0.0000,  0.0000,  0.0000)
  17 C     19.440400  -26.836566    1.730608    ( 0.0000,  0.0000,  0.0000)
  18 C     12.493194  -17.161765    1.731074    ( 0.0000,  0.0000,  0.0000)
  19 C      6.079913   -7.695970    1.736157    ( 0.0000,  0.0000,  0.0000)
  20 C     14.675775  -21.174565    1.731171    ( 0.0000,  0.0000,  0.0000)
  21 C      8.543361  -12.363564    1.737581    ( 0.0000,  0.0000,  0.0000)

Unit cell:
           periodic     x           y           z      points  spacing
  1. axis:    yes    7.380000   -8.521690    0.000000    48     0.0269
  2. axis:    yes   15.990000  -23.434647    0.000000   120     0.0271
  3. axis:    no     0.000000    0.000000   24.000000    96     0.2500

  Lengths:  11.273136  28.370104  24.000000
  Angles:   90.000000  90.000000   6.586776

Effective grid spacing dv^(1/3) = 0.1168

     iter     time        total  log10-change:
                         energy   eigst   dens  maxit
iter:   1 02:21:09  -177.279844   -3.03             1
iter:   2 02:21:15  -177.277516   -4.45  -2.52      2
iter:   3 02:21:22  -177.272189c  -3.84  -2.59      3
iter:   4 02:21:30  -177.271925c  -5.56  -3.12      4
iter:   5 02:21:37  -177.271400c  -5.03  -3.24      5
iter:   6 02:21:44  -177.271168c  -5.44  -3.26      6
iter:   7 02:21:51  -177.271621c  -6.63  -3.84c     7
iter:   8 02:21:58  -177.271484c  -7.00  -3.94c     8
iter:   9 02:22:06  -177.271525c  -7.57  -4.20c     9
iter:  10 02:22:13  -177.271573c  -7.61  -4.37c    10
iter:  11 02:22:20  -177.271528c  -8.43c -4.84c    11

Converged after 11 iterations.

Dipole moment: (14.879122, -25.918757, 2.405764) |e|*Ang

Energy contributions relative to reference atoms: (reference = -22607.818540)

Kinetic:       +138.778601
Potential:     -133.416609
External:        +0.000000
XC:            -183.736363
Entropy (-ST):   -0.038828
Local:           +1.122256
SIC:             +0.000000
--------------------------
Free energy:   -177.290942
Extrapolated:  -177.271528

Showing only first 2 kpts
 Kpt  Band  Eigenvalues  Occupancy
  0    42     -4.17522    2.00000
  0    43     -3.01152    1.91086
  0    44     -2.37269    0.06957
  0    45     -1.12064    0.00000

  1    42     -4.21829    2.00000
  1    43     -3.97275    1.99999
  1    44     -2.24331    0.01957
  1    45     -1.01586    0.00000


Fermi level: -2.70501

Gap: 0.639 eV
Transition (v -> c):
  (s=0, k=3, n=43, [0.25, 0.25, 0.00]) -> (s=0, k=3, n=44, [0.25, 0.25, 0.00])
No difference between direct/indirect transitions

Forces in eV/Ang:
  0 C    -0.01149    0.06566   -0.04774
  1 C     0.01504   -0.07062   -0.04725
  2 C    -0.01271    0.06727   -0.03393
  3 C     0.01737   -0.06055   -0.05479
  4 C    -0.01700    0.06048   -0.05496
  5 C     0.01391   -0.06795   -0.03489
  6 C    -0.01447    0.06998   -0.04795
  7 C     0.01210   -0.06566   -0.04751
  8 C    -0.01006    0.06764   -0.08722
  9 C     0.01352   -0.06874   -0.08573
 10 C    -0.01015    0.07211   -0.08747
 11 C     0.01081   -0.07249   -0.08799
 12 C    -0.01243    0.06819   -0.08554
 13 C     0.01076   -0.06809   -0.08712
 14 C    -0.17815   -0.11399    0.07351
 15 C     0.01470   -0.04133    0.07738
 16 C     0.04508   -0.09778    0.06438
 17 C     0.47313    0.07202    0.07733
 18 C    -0.47089   -0.06302    0.07604
 19 C    -0.05367    0.08848    0.06439
 20 C    -0.04641    0.03329    0.07663
 21 C     0.22613    0.10765    0.07289

System changes: positions 

Initializing position-dependent things.

Density initialized from wave functions


Positions:
   0 C      0.000341   -0.004665   -1.731460    ( 0.0000,  0.0000,  0.0000)
   1 C      9.840482  -14.198842   -1.731632    ( 0.0000,  0.0000,  0.0000)
   2 C      9.840422  -12.787513   -1.737070    ( 0.0000,  0.0000,  0.0000)
   3 C     19.680264  -26.981326   -1.728921    ( 0.0000,  0.0000,  0.0000)
   4 C     12.300417  -17.047884   -1.728973    ( 0.0000,  0.0000,  0.0000)
   5 C      6.150214   -7.806950   -1.737074    ( 0.0000,  0.0000,  0.0000)
   6 C     14.760229  -21.308588   -1.731610    ( 0.0000,  0.0000,  0.0000)
   7 C      8.610383  -12.068166   -1.731406    ( 0.0000,  0.0000,  0.0000)
   8 C      8.610557  -10.656768   -1.714231    ( 0.0000,  0.0000,  0.0000)
   9 C     18.450456  -24.850737   -1.716399    ( 0.0000,  0.0000,  0.0000)
  10 C     11.070496  -14.917467   -1.715910    ( 0.0000,  0.0000,  0.0000)
  11 C      4.920248   -5.677120   -1.715787    ( 0.0000,  0.0000,  0.0000)
  12 C     13.530158  -19.178463   -1.716280    ( 0.0000,  0.0000,  0.0000)
  13 C      7.379988   -9.937702   -1.714247    ( 0.0000,  0.0000,  0.0000)
  14 C      0.008204    0.343116    1.747962    ( 0.0000,  0.0000,  0.0000)
  15 C      9.874078  -14.303132    1.740797    ( 0.0000,  0.0000,  0.0000)
  16 C      9.881539  -12.870801    1.744654    ( 0.0000,  0.0000,  0.0000)
  17 C     19.463529  -26.844057    1.740836    ( 0.0000,  0.0000,  0.0000)
  18 C     12.469906  -17.154181    1.741205    ( 0.0000,  0.0000,  0.0000)
  19 C      6.061853   -7.692629    1.744693    ( 0.0000,  0.0000,  0.0000)
  20 C     14.680139  -21.172774    1.740941    ( 0.0000,  0.0000,  0.0000)
  21 C      8.554844  -12.383623    1.748093    ( 0.0000,  0.0000,  0.0000)

Unit cell:
           periodic     x           y           z      points  spacing
  1. axis:    yes    7.380000   -8.521690    0.000000    48     0.0269
  2. axis:    yes   15.990000  -23.434647    0.000000   120     0.0271
  3. axis:    no     0.000000    0.000000   24.000000    96     0.2500

  Lengths:  11.273136  28.370104  24.000000
  Angles:   90.000000  90.000000   6.586776

Effective grid spacing dv^(1/3) = 0.1168

     iter     time        total  log10-change:
                         energy   eigst   dens  maxit
iter:   1 02:22:27  -177.340247   -2.27             1
iter:   2 02:22:35  -177.328806   -3.72  -2.14      2
iter:   3 02:22:42  -177.306532c  -3.20  -2.22      3
iter:   4 02:22:49  -177.304287c  -4.83  -2.79      4
iter:   5 02:22:56  -177.301566c  -4.91  -2.92      5
iter:   6 02:23:03  -177.302987c  -4.70  -3.15      6
iter:   7 02:23:10  -177.302213c  -4.87  -3.06      7
iter:   8 02:23:17  -177.302528c  -6.00  -3.51      8
iter:   9 02:23:24  -177.302642c  -6.87  -3.94c     9
iter:  10 02:23:31  -177.302433c  -6.74  -4.02c    10
iter:  11 02:23:38  -177.302401c  -7.47  -4.36c    11
iter:  12 02:23:46  -177.302439c  -8.24c -4.64c    12

Converged after 12 iterations.

Dipole moment: (14.763567, -25.696603, 2.134968) |e|*Ang

Energy contributions relative to reference atoms: (reference = -22607.818540)

Kinetic:       +139.268494
Potential:     -133.890952
External:        +0.000000
XC:            -183.778350
Entropy (-ST):   -0.029381
Local:           +1.113060
SIC:             +0.000000
--------------------------
Free energy:   -177.317130
Extrapolated:  -177.302439

Showing only first 2 kpts
 Kpt  Band  Eigenvalues  Occupancy
  0    42     -4.18964    2.00000
  0    43     -2.97752    1.93803
  0    44     -2.25989    0.04670
  0    45     -1.07111    0.00000

  1    42     -4.21875    2.00000
  1    43     -3.96857    2.00000
  1    44     -2.14649    0.01527
  1    45     -1.01585    0.00000


Fermi level: -2.63324

Gap: 0.718 eV
Transition (v -> c):
  (s=0, k=0, n=43, [-0.25, -0.25, 0.00]) -> (s=0, k=0, n=44, [-0.25, -0.25, 0.00])
No difference between direct/indirect transitions

Forces in eV/Ang:
  0 C    -0.02518    0.17517   -0.04724
  1 C     0.02748   -0.17430   -0.04280
  2 C    -0.02271    0.17476   -0.02874
  3 C     0.03241   -0.16971   -0.05248
  4 C    -0.03205    0.16961   -0.05331
  5 C     0.02352   -0.17561   -0.02929
  6 C    -0.02729    0.17313   -0.04315
  7 C     0.02615   -0.17519   -0.04774
  8 C    -0.02952    0.16985   -0.07522
  9 C     0.03387   -0.17079   -0.07167
 10 C    -0.03610    0.16814   -0.07944
 11 C     0.03680   -0.16821   -0.08034
 12 C    -0.03365    0.17052   -0.07191
 13 C     0.03080   -0.16997   -0.07559
 14 C    -0.24117   -0.24751    0.05147
 15 C     0.03519   -0.14709    0.06629
 16 C    -0.09515   -0.15166    0.06675
 17 C     0.23576   -0.17285    0.06166
 18 C    -0.22846    0.17658    0.06119
 19 C     0.08631    0.15668    0.06596
 20 C    -0.08514    0.11438    0.06581
 21 C     0.31355    0.24576    0.05074

System changes: positions 

Initializing position-dependent things.

Density initialized from wave functions


Positions:
   0 C      0.000309   -0.004141   -1.740535    ( 0.0000,  0.0000,  0.0000)
   1 C      9.840684  -14.199587   -1.740898    ( 0.0000,  0.0000,  0.0000)
   2 C      9.840286  -12.786869   -1.745030    ( 0.0000,  0.0000,  0.0000)
   3 C     19.680450  -26.982097   -1.738898    ( 0.0000,  0.0000,  0.0000)
   4 C     12.300371  -17.047172   -1.738960    ( 0.0000,  0.0000,  0.0000)
   5 C      6.150483   -7.807654   -1.745175    ( 0.0000,  0.0000,  0.0000)
   6 C     14.760158  -21.307917   -1.740990    ( 0.0000,  0.0000,  0.0000)
   7 C      8.610551  -12.068757   -1.740436    ( 0.0000,  0.0000,  0.0000)
   8 C      8.610444  -10.655973   -1.727805    ( 0.0000,  0.0000,  0.0000)
   9 C     18.450767  -24.851311   -1.729949    ( 0.0000,  0.0000,  0.0000)
  10 C     11.070381  -14.916923   -1.729320    ( 0.0000,  0.0000,  0.0000)
  11 C      4.920486   -5.677752   -1.729231    ( 0.0000,  0.0000,  0.0000)
  12 C     13.529966  -19.177970   -1.729789    ( 0.0000,  0.0000,  0.0000)
  13 C      7.380225   -9.938554   -1.727779    ( 0.0000,  0.0000,  0.0000)
  14 C     -0.010513    0.358837    1.762156    ( 0.0000,  0.0000,  0.0000)
  15 C      9.866999  -14.308322    1.754427    ( 0.0000,  0.0000,  0.0000)
  16 C      9.904287  -12.877114    1.756470    ( 0.0000,  0.0000,  0.0000)
  17 C     19.501326  -26.863139    1.754931    ( 0.0000,  0.0000,  0.0000)
  18 C     12.431990  -17.135014    1.755160    ( 0.0000,  0.0000,  0.0000)
  19 C      6.039717   -7.686596    1.756559    ( 0.0000,  0.0000,  0.0000)
  20 C     14.687268  -21.167914    1.754488    ( 0.0000,  0.0000,  0.0000)
  21 C      8.574501  -12.400926    1.762228    ( 0.0000,  0.0000,  0.0000)

Unit cell:
           periodic     x           y           z      points  spacing
  1. axis:    yes    7.380000   -8.521690    0.000000    48     0.0269
  2. axis:    yes   15.990000  -23.434647    0.000000   120     0.0271
  3. axis:    no     0.000000    0.000000   24.000000    96     0.2500

  Lengths:  11.273136  28.370104  24.000000
  Angles:   90.000000  90.000000   6.586776

Effective grid spacing dv^(1/3) = 0.1168

     iter     time        total  log10-change:
                         energy   eigst   dens  maxit
iter:   1 02:23:54  -177.413499   -1.93             1
iter:   2 02:24:01  -177.378179   -3.35  -1.95      2
iter:   3 02:24:07  -177.347592   -3.64  -2.05      3
iter:   4 02:24:15  -177.331973   -3.21  -2.24      4
iter:   5 02:24:22  -177.327824c  -4.11  -2.70      5
iter:   6 02:24:29  -177.324885c  -4.43  -2.90      6
iter:   7 02:24:36  -177.326904c  -4.88  -2.98      7
iter:   8 02:24:43  -177.327300c  -5.66  -3.49      8
iter:   9 02:24:51  -177.327512c  -6.50  -3.70c     9
iter:  10 02:24:58  -177.326871c  -6.17  -3.77c    10
iter:  11 02:25:05  -177.326959c  -7.11  -4.10c    11
iter:  12 02:25:12  -177.327085c  -7.60  -4.53c    12
iter:  13 02:25:19  -177.327018c  -8.21c -4.61c    13

Converged after 13 iterations.

Dipole moment: (14.289554, -25.001147, 1.928014) |e|*Ang

Energy contributions relative to reference atoms: (reference = -22607.818540)

Kinetic:       +137.118293
Potential:     -132.346802
External:        +0.000000
XC:            -183.192751
Entropy (-ST):   -0.022854
Local:           +1.105670
SIC:             +0.000000
--------------------------
Free energy:   -177.338445
Extrapolated:  -177.327018

Showing only first 2 kpts
 Kpt  Band  Eigenvalues  Occupancy
  0    42     -4.16176    2.00000
  0    43     -2.94224    1.95503
  0    44     -2.15467    0.03249
  0    45     -1.05230    0.00000

  1    42     -4.18654    2.00000
  1    43     -3.96759    2.00000
  1    44     -2.05801    0.01248
  1    45     -1.01766    0.00000


Fermi level: -2.56503

Gap: 0.788 eV
Transition (v -> c):
  (s=0, k=0, n=43, [-0.25, -0.25, 0.00]) -> (s=0, k=0, n=44, [-0.25, -0.25, 0.00])
No difference between direct/indirect transitions

Forces in eV/Ang:
  0 C    -0.01310    0.08348   -0.04221
  1 C     0.00926   -0.07907   -0.03859
  2 C    -0.00872    0.08080   -0.02492
  3 C     0.01502   -0.06824   -0.04670
  4 C    -0.01536    0.06805   -0.04820
  5 C     0.00968   -0.08203   -0.02482
  6 C    -0.00889    0.07840   -0.03848
  7 C     0.01322   -0.08329   -0.04334
  8 C    -0.01016    0.07106   -0.05205
  9 C     0.01156   -0.08439   -0.04630
 10 C    -0.01337    0.08470   -0.05887
 11 C     0.01400   -0.08424   -0.05971
 12 C    -0.01059    0.08440   -0.04711
 13 C     0.01123   -0.07202   -0.05298
 14 C    -0.01677   -0.27483    0.01901
 15 C    -0.19183   -0.29387    0.04729
 16 C    -0.14103   -0.27467    0.06516
 17 C     0.22441    0.64351    0.03684
 18 C    -0.20098   -0.63730    0.03709
 19 C     0.13205    0.27057    0.06352
 20 C     0.17289    0.26731    0.04715
 21 C     0.04459    0.27159    0.01805

System changes: positions 

Initializing position-dependent things.

Density initialized from wave functions


Positions:
   0 C      0.000203   -0.003781   -1.742180    ( 0.0000,  0.0000,  0.0000)
   1 C      9.840758  -14.199933   -1.742545    ( 0.0000,  0.0000,  0.0000)
   2 C      9.840223  -12.786520   -1.746207    ( 0.0000,  0.0000,  0.0000)
   3 C     19.680598  -26.982253   -1.740785    ( 0.0000,  0.0000,  0.0000)
   4 C     12.300234  -17.047027   -1.740869    ( 0.0000,  0.0000,  0.0000)
   5 C      6.150579   -7.808030   -1.746374    ( 0.0000,  0.0000,  0.0000)
   6 C     14.760107  -21.307586   -1.742655    ( 0.0000,  0.0000,  0.0000)
   7 C      8.610674  -12.069123   -1.742090    ( 0.0000,  0.0000,  0.0000)
   8 C      8.610378  -10.655741   -1.730495    ( 0.0000,  0.0000,  0.0000)
   9 C     18.450873  -24.851702   -1.732524    ( 0.0000,  0.0000,  0.0000)
  10 C     11.070284  -14.916504   -1.732053    ( 0.0000,  0.0000,  0.0000)
  11 C      4.920605   -5.678175   -1.731983    ( 0.0000,  0.0000,  0.0000)
  12 C     13.529889  -19.177588   -1.732370    ( 0.0000,  0.0000,  0.0000)
  13 C      7.380323   -9.938807   -1.730475    ( 0.0000,  0.0000,  0.0000)
  14 C     -0.014830    0.355289    1.764228    ( 0.0000,  0.0000,  0.0000)
  15 C      9.862937  -14.312232    1.756849    ( 0.0000,  0.0000,  0.0000)
  16 C      9.907051  -12.880340    1.758815    ( 0.0000,  0.0000,  0.0000)
  17 C     19.509142  -26.862441    1.757289    ( 0.0000,  0.0000,  0.0000)
  18 C     12.424393  -17.135673    1.757496    ( 0.0000,  0.0000,  0.0000)
  19 C      6.037199   -7.683416    1.758891    ( 0.0000,  0.0000,  0.0000)
  20 C     14.691520  -21.164272    1.756896    ( 0.0000,  0.0000,  0.0000)
  21 C      8.578726  -12.397787    1.764274    ( 0.0000,  0.0000,  0.0000)

Unit cell:
           periodic     x           y           z      points  spacing
  1. axis:    yes    7.380000   -8.521690    0.000000    48     0.0269
  2. axis:    yes   15.990000  -23.434647    0.000000   120     0.0271
  3. axis:    no     0.000000    0.000000   24.000000    96     0.2500

  Lengths:  11.273136  28.370104  24.000000
  Angles:   90.000000  90.000000   6.586776

Effective grid spacing dv^(1/3) = 0.1168

     iter     time        total  log10-change:
                         energy   eigst   dens  maxit
iter:   1 02:25:28  -177.335821   -3.32             1
iter:   2 02:25:35  -177.335674   -4.73  -2.67      2
iter:   3 02:25:42  -177.336606c  -4.37  -2.76      3
iter:   4 02:25:49  -177.336094c  -5.61  -3.27      4
iter:   5 02:25:57  -177.335866c  -5.35  -3.40      5
iter:   6 02:26:04  -177.336363c  -6.01  -3.59c     6
iter:   7 02:26:11  -177.335847c  -6.11  -3.62c     7
iter:   8 02:26:18  -177.335844c  -6.94  -4.18c     8
iter:   9 02:26:25  -177.335941c  -7.45  -4.38c     9
iter:  10 02:26:32  -177.335892c  -8.19c -4.48c    10

Converged after 10 iterations.

Dipole moment: (13.861988, -24.361688, 1.947733) |e|*Ang

Energy contributions relative to reference atoms: (reference = -22607.818540)

Kinetic:       +136.423113
Potential:     -131.814963
External:        +0.000000
XC:            -183.036072
Entropy (-ST):   -0.024338
Local:           +1.104198
SIC:             +0.000000
--------------------------
Free energy:   -177.348061
Extrapolated:  -177.335892

Showing only first 2 kpts
 Kpt  Band  Eigenvalues  Occupancy
  0    42     -4.16421    2.00000
  0    43     -2.94486    1.95132
  0    44     -2.17405    0.03538
  0    45     -1.05981    0.00000

  1    42     -4.18458    2.00000
  1    43     -3.97463    2.00000
  1    44     -2.07514    0.01330
  1    45     -1.00586    0.00000


Fermi level: -2.57575

Gap: 0.771 eV
Transition (v -> c):
  (s=0, k=3, n=43, [0.25, 0.25, 0.00]) -> (s=0, k=3, n=44, [0.25, 0.25, 0.00])
No difference between direct/indirect transitions

Forces in eV/Ang:
  0 C    -0.00065    0.04142   -0.04246
  1 C    -0.00151   -0.03207   -0.04102
  2 C     0.00438    0.03842   -0.03083
  3 C    -0.00031   -0.04485   -0.04631
  4 C     0.00081    0.04448   -0.04745
  5 C    -0.00461   -0.03873   -0.03058
  6 C     0.00173    0.03136   -0.04093
  7 C     0.00163   -0.04237   -0.04344
  8 C    -0.00115    0.03658   -0.04792
  9 C    -0.00190   -0.03855   -0.04419
 10 C    -0.00122    0.03200   -0.05429
 11 C     0.00194   -0.03197   -0.05491
 12 C     0.00242    0.03885   -0.04494
 13 C     0.00210   -0.03687   -0.04872
 14 C    -0.04307   -0.21457    0.01785
 15 C    -0.17771   -0.21038    0.04635
 16 C    -0.02984   -0.18306    0.06212
 17 C    -0.13897    0.03593    0.03446
 18 C     0.15850   -0.03359    0.03493
 19 C     0.01107    0.17414    0.06049
 20 C     0.14264    0.18828    0.04609
 21 C     0.09944    0.21724    0.01714

System changes: positions 

Initializing position-dependent things.

Density initialized from wave functions


Positions:
   0 C      0.000152   -0.003059   -1.745322    ( 0.0000,  0.0000,  0.0000)
   1 C      9.840753  -14.200444   -1.745683    ( 0.0000,  0.0000,  0.0000)
   2 C      9.840320  -12.785864   -1.748627    ( 0.0000,  0.0000,  0.0000)
   3 C     19.680669  -26.982922   -1.744290    ( 0.0000,  0.0000,  0.0000)
   4 C     12.300197  -17.046381   -1.744418    ( 0.0000,  0.0000,  0.0000)
   5 C      6.150516   -7.808719   -1.748818    ( 0.0000,  0.0000,  0.0000)
   6 C     14.760148  -21.307109   -1.745816    ( 0.0000,  0.0000,  0.0000)
   7 C      8.610773  -12.069881   -1.745257    ( 0.0000,  0.0000,  0.0000)
   8 C      8.610358  -10.655190   -1.734956    ( 0.0000,  0.0000,  0.0000)
   9 C     18.450865  -24.852403   -1.736804    ( 0.0000,  0.0000,  0.0000)
  10 C     11.070259  -14.915932   -1.736683    ( 0.0000,  0.0000,  0.0000)
  11 C      4.920675   -5.678757   -1.736646    ( 0.0000,  0.0000,  0.0000)
  12 C     13.529945  -19.176894   -1.736669    ( 0.0000,  0.0000,  0.0000)
  13 C      7.380401   -9.939386   -1.734956    ( 0.0000,  0.0000,  0.0000)
  14 C     -0.021832    0.348936    1.767581    ( 0.0000,  0.0000,  0.0000)
  15 C      9.855725  -14.320369    1.761107    ( 0.0000,  0.0000,  0.0000)
  16 C      9.910507  -12.887773    1.763231    ( 0.0000,  0.0000,  0.0000)
  17 C     19.514439  -26.862703    1.761247    ( 0.0000,  0.0000,  0.0000)
  18 C     12.419699  -17.135322    1.761436    ( 0.0000,  0.0000,  0.0000)
  19 C      6.033587   -7.676298    1.763262    ( 0.0000,  0.0000,  0.0000)
  20 C     14.698148  -21.156834    1.761130    ( 0.0000,  0.0000,  0.0000)
  21 C      8.586959  -12.391852    1.767584    ( 0.0000,  0.0000,  0.0000)

Unit cell:
           periodic     x           y           z      points  spacing
  1. axis:    yes    7.380000   -8.521690    0.000000    48     0.0269
  2. axis:    yes   15.990000  -23.434647    0.000000   120     0.0271
  3. axis:    no     0.000000    0.000000   24.000000    96     0.2500

  Lengths:  11.273136  28.370104  24.000000
  Angles:   90.000000  90.000000   6.586776

Effective grid spacing dv^(1/3) = 0.1168

     iter     time        total  log10-change:
                         energy   eigst   dens  maxit
iter:   1 02:26:40  -177.347378   -2.97             1
iter:   2 02:26:47  -177.346145   -4.39  -2.46      2
iter:   3 02:26:54  -177.345786c  -4.17  -2.56      3
iter:   4 02:27:02  -177.345538c  -4.76  -2.96      4
iter:   5 02:27:09  -177.344801c  -5.08  -3.25      5
iter:   6 02:27:16  -177.344996c  -5.92  -3.41      6
iter:   7 02:27:22  -177.344738c  -6.66  -3.78c     7
iter:   8 02:27:29  -177.344858c  -6.80  -3.96c     8
iter:   9 02:27:37  -177.344969c  -7.10  -4.23c     9
iter:  10 02:27:44  -177.344875c  -7.59  -4.31c    10
iter:  11 02:27:51  -177.344893c  -8.23c -4.75c    11

Converged after 11 iterations.

Dipole moment: (13.447275, -23.694338, 1.991506) |e|*Ang

Energy contributions relative to reference atoms: (reference = -22607.818540)

Kinetic:       +135.177567
Potential:     -130.838774
External:        +0.000000
XC:            -182.773163
Entropy (-ST):   -0.027125
Local:           +1.103039
SIC:             +0.000000
--------------------------
Free energy:   -177.358456
Extrapolated:  -177.344893

Showing only first 2 kpts
 Kpt  Band  Eigenvalues  Occupancy
  0    42     -4.17023    2.00000
  0    43     -2.94978    1.94415
  0    44     -2.20809    0.04099
  0    45     -1.07582    0.00000

  1    42     -4.18301    2.00000
  1    43     -3.98644    2.00000
  1    44     -2.10530    0.01486
  1    45     -0.99297    0.00000


Fermi level: -2.59478

Gap: 0.742 eV
Transition (v -> c):
  (s=0, k=0, n=43, [-0.25, -0.25, 0.00]) -> (s=0, k=0, n=44, [-0.25, -0.25, 0.00])
No difference between direct/indirect transitions

Forces in eV/Ang:
  0 C     0.00525   -0.04123   -0.03461
  1 C    -0.00247    0.03992   -0.03622
  2 C     0.00502   -0.04121   -0.03203
  3 C    -0.00252    0.04010   -0.03773
  4 C     0.00326   -0.04055   -0.03800
  5 C    -0.00461    0.04089   -0.03182
  6 C     0.00295   -0.04017   -0.03649
  7 C    -0.00512    0.04064   -0.03514
  8 C     0.00110   -0.04269   -0.03820
  9 C    -0.00540    0.04345   -0.03822
 10 C     0.00257   -0.04271   -0.04189
 11 C    -0.00188    0.04264   -0.04221
 12 C     0.00570   -0.04354   -0.03886
 13 C    -0.00039    0.04239   -0.03856
 14 C    -0.08238   -0.11984    0.01690
 15 C    -0.13001   -0.10865    0.04103
 16 C     0.08866   -0.06078    0.05098
 17 C    -0.34015   -0.32307    0.03139
 18 C     0.33025    0.29511    0.03186
 19 C    -0.03744    0.07089    0.04998
 20 C     0.19220    0.12100    0.04099
 21 C    -0.00342    0.10241    0.01616

System changes: positions 

Initializing position-dependent things.

Density initialized from wave functions


Positions:
   0 C      0.000041   -0.002685   -1.750367    ( 0.0000,  0.0000,  0.0000)
   1 C      9.840884  -14.200725   -1.750761    ( 0.0000,  0.0000,  0.0000)
   2 C      9.840329  -12.785541   -1.752703    ( 0.0000,  0.0000,  0.0000)
[...]

Forces in eV/Ang:
  0 C     0.02111   -0.07745   -0.02947
  1 C    -0.01747    0.07909   -0.03391
  2 C     0.01957   -0.07705   -0.03836
  3 C    -0.02285    0.05962   -0.03059
  4 C     0.02397   -0.06013   -0.02978
  5 C    -0.02003    0.07757   -0.03808
  6 C     0.01802   -0.07922   -0.03419
  7 C    -0.01986    0.07642   -0.02925
  8 C     0.01859   -0.06779   -0.02779
  9 C    -0.02352    0.07893   -0.03266
 10 C     0.02322   -0.08352   -0.02806
 11 C    -0.02299    0.08300   -0.02801
 12 C     0.02374   -0.07922   -0.03300
 13 C    -0.01837    0.06796   -0.02757
 14 C     0.03390    0.00804    0.01617
 15 C    -0.11117   -0.01064    0.03320
 16 C     0.05003    0.02946    0.03216
 17 C    -0.33497   -0.36881    0.02616
 18 C     0.35583    0.37330    0.02635
 19 C    -0.11123   -0.06493    0.03166
 20 C     0.05557    0.01342    0.03247
 21 C     0.07584    0.00154    0.01645

System changes: positions 

Initializing position-dependent things.

Density initialized from wave functions


Positions:
   0 C      0.000236   -0.002838   -1.756009    ( 0.0000,  0.0000,  0.0000)
   1 C      9.840775  -14.200482   -1.756475    ( 0.0000,  0.0000,  0.0000)
   2 C      9.840583  -12.785734   -1.758012    ( 0.0000,  0.0000,  0.0000)
   3 C     19.680833  -26.983067   -1.755829    ( 0.0000,  0.0000,  0.0000)
   4 C     12.300166  -17.046321   -1.756040    ( 0.0000,  0.0000,  0.0000)
   5 C      6.150387   -7.808952   -1.758255    ( 0.0000,  0.0000,  0.0000)
   6 C     14.760261  -21.307171   -1.756679    ( 0.0000,  0.0000,  0.0000)
   7 C      8.610830  -12.070203   -1.755999    ( 0.0000,  0.0000,  0.0000)
   8 C      8.610362  -10.655242   -1.748262    ( 0.0000,  0.0000,  0.0000)
   9 C     18.450726  -24.852604   -1.749935    ( 0.0000,  0.0000,  0.0000)
  10 C     11.070330  -14.915898   -1.750496    ( 0.0000,  0.0000,  0.0000)
  11 C      4.920757   -5.678844   -1.750533    ( 0.0000,  0.0000,  0.0000)
  12 C     13.530236  -19.176750   -1.749857    ( 0.0000,  0.0000,  0.0000)
  13 C      7.380569   -9.939430   -1.748306    ( 0.0000,  0.0000,  0.0000)
  14 C     -0.041431    0.342950    1.778915    ( 0.0000,  0.0000,  0.0000)
  15 C      9.838650  -14.343371    1.775078    ( 0.0000,  0.0000,  0.0000)
  16 C      9.921394  -12.909571    1.777717    ( 0.0000,  0.0000,  0.0000)
  17 C     19.514375  -26.864795    1.774240    ( 0.0000,  0.0000,  0.0000)
  18 C     12.421074  -17.133906    1.774404    ( 0.0000,  0.0000,  0.0000)
  19 C      6.023037   -7.655530    1.777623    ( 0.0000,  0.0000,  0.0000)
  20 C     14.715102  -21.134942    1.775033    ( 0.0000,  0.0000,  0.0000)
  21 C      8.608293  -12.387272    1.778812    ( 0.0000,  0.0000,  0.0000)

Unit cell:
           periodic     x           y           z      points  spacing
  1. axis:    yes    7.380000   -8.521690    0.000000    48     0.0269
  2. axis:    yes   15.990000  -23.434647    0.000000   120     0.0271
  3. axis:    no     0.000000    0.000000   24.000000    96     0.2500

  Lengths:  11.273136  28.370104  24.000000
  Angles:   90.000000  90.000000   6.586776

Effective grid spacing dv^(1/3) = 0.1168

     iter     time        total  log10-change:
                         energy   eigst   dens  maxit
iter:   1 02:29:25  -177.371218   -2.71             1
iter:   2 02:29:32  -177.366659   -4.18  -2.32      2
iter:   3 02:29:39  -177.361050c  -3.74  -2.41      3
iter:   4 02:29:46  -177.359690c  -4.90  -2.98      4
iter:   5 02:29:53  -177.358670c  -5.09  -3.16      5
iter:   6 02:30:00  -177.359462c  -5.29  -3.43      6
iter:   7 02:30:07  -177.358314c  -5.60  -3.36      7
iter:   8 02:30:14  -177.358801c  -6.59  -3.88c     8
iter:   9 02:30:22  -177.358855c  -7.27  -4.33c     9
iter:  10 02:30:28  -177.358751c  -7.96  -4.28c    10
iter:  11 02:30:35  -177.358854c  -7.44  -4.43c    11
iter:  12 02:30:42  -177.358802c  -8.35c -4.70c    12

Converged after 12 iterations.

Dipole moment: (13.301835, -23.117849, 1.974226) |e|*Ang

Energy contributions relative to reference atoms: (reference = -22607.818540)

Kinetic:       +132.939753
Potential:     -129.057489
External:        +0.000000
XC:            -182.331326
Entropy (-ST):   -0.029062
Local:           +1.104790
SIC:             +0.000000
--------------------------
Free energy:   -177.373333
Extrapolated:  -177.358802

Showing only first 2 kpts
 Kpt  Band  Eigenvalues  Occupancy
  0    42     -4.17687    2.00000
  0    43     -2.95454    1.93900
  0    44     -2.23182    0.04515
  0    45     -1.08006    0.00000

  1    42     -4.19910    2.00000
  1    43     -3.99784    2.00000
  1    44     -2.12563    0.01585
  1    45     -0.98125    0.00000


Fermi level: -2.60863

Gap: 0.723 eV
Transition (v -> c):
  (s=0, k=0, n=43, [-0.25, -0.25, 0.00]) -> (s=0, k=3, n=44, [0.25, 0.25, 0.00])
Direct/indirect transitions are different
Direct gap: 0.723 eV
Transition at: (s=0, k=0, n=43, [-0.25, -0.25, 0.00])

Forces in eV/Ang:
  0 C     0.00250   -0.05810   -0.02227
  1 C     0.00153    0.04925   -0.02675
  2 C    -0.00237   -0.05439   -0.03462
  3 C    -0.00026    0.05463   -0.02171
  4 C     0.00110   -0.05511   -0.02032
  5 C     0.00328    0.05435   -0.03459
  6 C    -0.00095   -0.04903   -0.02755
  7 C    -0.00260    0.05783   -0.02168
  8 C    -0.00026   -0.05258   -0.01843
  9 C     0.00045    0.05682   -0.02479
 10 C     0.00119   -0.05262   -0.01701
 11 C    -0.00078    0.05184   -0.01693
 12 C    -0.00044   -0.05708   -0.02504
 13 C     0.00041    0.05252   -0.01794
 14 C    -0.05964    0.00734    0.01431
 15 C     0.00338    0.06458    0.02635
 16 C     0.10422    0.12460    0.01669
 17 C    -0.20167   -0.26786    0.02184
 18 C     0.15944    0.20654    0.02156
 19 C     0.01748   -0.08284    0.01693
 20 C     0.15324   -0.03504    0.02623
 21 C    -0.16355   -0.03443    0.01438

System changes: positions 

Initializing position-dependent things.

Density initialized from wave functions


Positions:
   0 C      0.000259   -0.003249   -1.757507    ( 0.0000,  0.0000,  0.0000)
   1 C      9.840819  -14.200176   -1.758067    ( 0.0000,  0.0000,  0.0000)
   2 C      9.840540  -12.786097   -1.759499    ( 0.0000,  0.0000,  0.0000)
   3 C     19.680867  -26.982740   -1.757442    ( 0.0000,  0.0000,  0.0000)
   4 C     12.300160  -17.046665   -1.757638    ( 0.0000,  0.0000,  0.0000)
   5 C      6.150458   -7.808600   -1.759749    ( 0.0000,  0.0000,  0.0000)
   6 C     14.760242  -21.307486   -1.758295    ( 0.0000,  0.0000,  0.0000)
   7 C      8.610826  -12.069807   -1.757492    ( 0.0000,  0.0000,  0.0000)
   8 C      8.610339  -10.655572   -1.750186    ( 0.0000,  0.0000,  0.0000)
   9 C     18.450743  -24.852221   -1.751957    ( 0.0000,  0.0000,  0.0000)
  10 C     11.070334  -14.916257   -1.752461    ( 0.0000,  0.0000,  0.0000)
  11 C      4.920776   -5.678504   -1.752506    ( 0.0000,  0.0000,  0.0000)
  12 C     13.530237  -19.177144   -1.751890    ( 0.0000,  0.0000,  0.0000)
  13 C      7.380613   -9.939112   -1.750226    ( 0.0000,  0.0000,  0.0000)
  14 C     -0.045288    0.341582    1.780253    ( 0.0000,  0.0000,  0.0000)
  15 C      9.834210  -14.343548    1.777046    ( 0.0000,  0.0000,  0.0000)
  16 C      9.923477  -12.910081    1.779531    ( 0.0000,  0.0000,  0.0000)
  17 C     19.512399  -26.866075    1.775987    ( 0.0000,  0.0000,  0.0000)
  18 C     12.422710  -17.133501    1.776136    ( 0.0000,  0.0000,  0.0000)
  19 C      6.022362   -7.654672    1.779424    ( 0.0000,  0.0000,  0.0000)
  20 C     14.721316  -21.134577    1.776983    ( 0.0000,  0.0000,  0.0000)
  21 C      8.609928  -12.386379    1.780138    ( 0.0000,  0.0000,  0.0000)

Unit cell:
           periodic     x           y           z      points  spacing
  1. axis:    yes    7.380000   -8.521690    0.000000    48     0.0269
  2. axis:    yes   15.990000  -23.434647    0.000000   120     0.0271
  3. axis:    no     0.000000    0.000000   24.000000    96     0.2500

  Lengths:  11.273136  28.370104  24.000000
  Angles:   90.000000  90.000000   6.586776

Effective grid spacing dv^(1/3) = 0.1168

     iter     time        total  log10-change:
                         energy   eigst   dens  maxit
iter:   1 02:30:50  -177.367188   -3.71             1
iter:   2 02:30:58  -177.365306   -5.12  -2.82      2
iter:   3 02:31:05  -177.360490c  -4.70  -2.90      3
iter:   4 02:31:12  -177.361439c  -5.92  -3.31      4
iter:   5 02:31:19  -177.360406c  -5.66  -3.35      5
iter:   6 02:31:26  -177.360149c  -6.43  -3.72c     6
iter:   7 02:31:33  -177.360275c  -6.79  -3.88c     7
iter:   8 02:31:40  -177.360126c  -7.32  -4.22c     8
iter:   9 02:31:47  -177.360207c  -7.79  -4.42c     9
iter:  10 02:31:53  -177.360191c  -8.21c -4.63c    10

Converged after 10 iterations.

Dipole moment: (13.403875, -23.179038, 1.966660) |e|*Ang

Energy contributions relative to reference atoms: (reference = -22607.818540)

Kinetic:       +133.286361
Potential:     -129.307933
External:        +0.000000
XC:            -182.430597
Entropy (-ST):   -0.029160
Local:           +1.106557
SIC:             +0.000000
--------------------------
Free energy:   -177.374771
Extrapolated:  -177.360191

Showing only first 2 kpts
 Kpt  Band  Eigenvalues  Occupancy
  0    42     -4.17951    2.00000
  0    43     -2.95816    1.93869
  0    44     -2.23729    0.04574
  0    45     -1.07546    0.00000

  1    42     -4.19255    2.00000
  1    43     -3.99712    2.00000
  1    44     -2.12801    0.01557
  1    45     -0.95339    0.00000


Fermi level: -2.61277

Gap: 0.721 eV
Transition (v -> c):
  (s=0, k=0, n=43, [-0.25, -0.25, 0.00]) -> (s=0, k=3, n=44, [0.25, 0.25, 0.00])
Direct/indirect transitions are different
Direct gap: 0.721 eV
Transition at: (s=0, k=0, n=43, [-0.25, -0.25, 0.00])

Forces in eV/Ang:
  0 C     0.00357   -0.00929   -0.02192
  1 C    -0.00195    0.00521   -0.02468
  2 C     0.00069   -0.00797   -0.03229
  3 C    -0.00343    0.00918   -0.02014
  4 C     0.00383   -0.00932   -0.01907
  5 C    -0.00022    0.00782   -0.03220
  6 C     0.00253   -0.00534   -0.02494
  7 C    -0.00305    0.00949   -0.02142
  8 C     0.00380   -0.00640   -0.01421
  9 C    -0.00103    0.00794   -0.01871
 10 C     0.00307   -0.00574   -0.01331
 11 C    -0.00293    0.00549   -0.01325
 12 C     0.00143   -0.00875   -0.01885
 13 C    -0.00360    0.00605   -0.01382
 14 C     0.07145   -0.00194    0.01384
 15 C     0.02742    0.05550    0.02357
 16 C    -0.04563    0.02296    0.01276
 17 C    -0.01296    0.00195    0.01903
 18 C     0.03756    0.00944    0.01887
 19 C    -0.01708   -0.05494    0.01269
 20 C    -0.08865   -0.06496    0.02284
 21 C     0.03762    0.01560    0.01449

System changes: positions 

Initializing position-dependent things.

Density initialized from wave functions


Positions:
   0 C      0.000282   -0.003391   -1.757962    ( 0.0000,  0.0000,  0.0000)
   1 C      9.840840  -14.200139   -1.758560    ( 0.0000,  0.0000,  0.0000)
   2 C      9.840500  -12.786207   -1.760283    ( 0.0000,  0.0000,  0.0000)
   3 C     19.680858  -26.982602   -1.757795    ( 0.0000,  0.0000,  0.0000)
   4 C     12.300177  -17.046807   -1.757968    ( 0.0000,  0.0000,  0.0000)
   5 C      6.150508   -7.808492   -1.760527    ( 0.0000,  0.0000,  0.0000)
   6 C     14.760231  -21.307524   -1.758789    ( 0.0000,  0.0000,  0.0000)
   7 C      8.610809  -12.069661   -1.757937    ( 0.0000,  0.0000,  0.0000)
   8 C      8.610356  -10.655654   -1.750133    ( 0.0000,  0.0000,  0.0000)
   9 C     18.450780  -24.852105   -1.752019    ( 0.0000,  0.0000,  0.0000)
  10 C     11.070340  -14.916321   -1.752390    ( 0.0000,  0.0000,  0.0000)
  11 C      4.920773   -5.678448   -1.752430    ( 0.0000,  0.0000,  0.0000)
  12 C     13.530205  -19.177274   -1.751951    ( 0.0000,  0.0000,  0.0000)
  13 C      7.380597   -9.939034   -1.750165    ( 0.0000,  0.0000,  0.0000)
  14 C     -0.043257    0.344366    1.780639    ( 0.0000,  0.0000,  0.0000)
  15 C      9.837112  -14.343153    1.777428    ( 0.0000,  0.0000,  0.0000)
  16 C      9.922660  -12.909607    1.779781    ( 0.0000,  0.0000,  0.0000)
  17 C     19.510213  -26.865479    1.776327    ( 0.0000,  0.0000,  0.0000)
  18 C     12.425023  -17.134202    1.776482    ( 0.0000,  0.0000,  0.0000)
  19 C      6.022817   -7.655372    1.779677    ( 0.0000,  0.0000,  0.0000)
  20 C     14.718218  -21.134976    1.777360    ( 0.0000,  0.0000,  0.0000)
  21 C      8.608404  -12.388999    1.780540    ( 0.0000,  0.0000,  0.0000)

Unit cell:
           periodic     x           y           z      points  spacing
  1. axis:    yes    7.380000   -8.521690    0.000000    48     0.0269
  2. axis:    yes   15.990000  -23.434647    0.000000   120     0.0271
  3. axis:    no     0.000000    0.000000   24.000000    96     0.2500

  Lengths:  11.273136  28.370104  24.000000
  Angles:   90.000000  90.000000   6.586776

Effective grid spacing dv^(1/3) = 0.1168

     iter     time        total  log10-change:
                         energy   eigst   dens  maxit
iter:   1 02:32:02  -177.361568   -4.19             1
iter:   2 02:32:09  -177.361523   -5.56  -3.29      2
iter:   3 02:32:16  -177.361475c  -5.30  -3.35      3
iter:   4 02:32:23  -177.361414c  -6.94  -3.80c     4
iter:   5 02:32:29  -177.361260c  -6.69  -3.87c     5
iter:   6 02:32:37  -177.361306c  -6.92  -4.19c     6
iter:   7 02:32:44  -177.361317c  -7.10  -4.20c     7
iter:   8 02:32:51  -177.361323c  -8.01c -4.66c     8

Converged after 8 iterations.

Dipole moment: (13.466046, -23.316502, 1.940352) |e|*Ang

Energy contributions relative to reference atoms: (reference = -22607.818540)

Kinetic:       +133.469479
Potential:     -129.458765
External:        +0.000000
XC:            -182.464416
Entropy (-ST):   -0.028023
Local:           +1.106389
SIC:             +0.000000
--------------------------
Free energy:   -177.375335
Extrapolated:  -177.361323

Showing only first 2 kpts
 Kpt  Band  Eigenvalues  Occupancy
  0    42     -4.17615    2.00000
  0    43     -2.95466    1.94175
  0    44     -2.22257    0.04315
  0    45     -1.07017    0.00000

  1    42     -4.19890    2.00000
  1    43     -3.99459    2.00000
  1    44     -2.11611    0.01510
  1    45     -0.96897    0.00000


Fermi level: -2.60400

Gap: 0.732 eV
Transition (v -> c):
  (s=0, k=3, n=43, [0.25, 0.25, 0.00]) -> (s=0, k=3, n=44, [0.25, 0.25, 0.00])
No difference between direct/indirect transitions

Forces in eV/Ang:
  0 C     0.00218    0.00334   -0.02189
  1 C    -0.00272   -0.00189   -0.02344
  2 C     0.00185    0.00328   -0.02708
  3 C    -0.00380   -0.00771   -0.02069
  4 C     0.00428    0.00751   -0.02002
  5 C    -0.00163   -0.00330   -0.02709
  6 C     0.00309    0.00164   -0.02364
  7 C    -0.00149   -0.00373   -0.02159
  8 C     0.00343    0.00633   -0.01784
  9 C    -0.00151   -0.00376   -0.02052
 10 C     0.00359    0.00164   -0.01815
 11 C    -0.00330   -0.00215   -0.01829
 12 C     0.00189    0.00350   -0.02081
 13 C    -0.00318   -0.00638   -0.01771
 14 C     0.05096   -0.02987    0.01350
 15 C     0.01289    0.03672    0.02344
 16 C    -0.03637    0.02789    0.01449
 17 C     0.02628    0.03274    0.01910
 18 C    -0.01606   -0.03550    0.01884
 19 C     0.02068   -0.03895    0.01447
 20 C    -0.03091   -0.04687    0.02299
 21 C    -0.01194    0.03558    0.01391

Timing:                                      incl.     excl.
-------------------------------------------------------------------
Density initialized from wave functions:    12.528    12.528   0.7% |
 Symmetrize density:                         0.000     0.000   0.0% |
Forces:                                     10.833    10.833   0.6% |
Hamiltonian:                                15.249     0.079   0.0% |
 Atomic:                                     2.453     0.012   0.0% |
  XC Correction:                             2.441     2.441   0.1% |
 Calculate atomic Hamiltonians:              0.823     0.823   0.0% |
 Communicate:                                0.000     0.000   0.0% |
 Initialize Hamiltonian:                     0.000     0.000   0.0% |
 Poisson:                                    0.018     0.018   0.0% |
 XC 3D grid:                                11.877    11.877   0.6% |
LCAO initialization:                        34.419     0.016   0.0% |
 LCAO eigensolver:                           1.995     0.001   0.0% |
  Calculate projections:                     0.002     0.002   0.0% |
  DenseAtomicCorrection:                     0.015     0.015   0.0% |
  Distribute overlap matrix:                 0.001     0.001   0.0% |
  Orbital Layouts:                           0.062     0.062   0.0% |
  Potential matrix:                          1.667     1.667   0.1% |
  Sum over cells:                            0.247     0.247   0.0% |
 LCAO to grid:                              32.111    32.111   1.7% ||
 Set positions (LCAO WFS):                   0.297     0.050   0.0% |
  Basic WFS set positions:                   0.000     0.000   0.0% |
  Basis functions set positions:             0.000     0.000   0.0% |
  P tci:                                     0.182     0.182   0.0% |
  ST tci:                                    0.061     0.061   0.0% |
  mktci:                                     0.004     0.004   0.0% |
PWDescriptor:                                0.489     0.489   0.0% |
Redistribute:                                0.021     0.021   0.0% |
SCF-cycle:                                1818.326     0.518   0.0% |
 Davidson:                                1446.773   108.320   5.7% |-|
  Apply H:                                 310.613   308.927  16.3% |------|
   HMM T:                                    1.686     1.686   0.1% |
  Subspace diag:                           329.702     0.095   0.0% |
   calc_h_matrix:                          321.559    10.760   0.6% |
    Apply H:                               310.799   309.120  16.3% |------|
     HMM T:                                  1.679     1.679   0.1% |
   diagonalize:                              0.606     0.606   0.0% |
   rotate_psi:                               7.442     7.442   0.4% |
  calc. matrices:                          661.433    35.054   1.8% ||
   Apply H:                                626.380   622.971  32.8% |------------|
    HMM T:                                   3.408     3.408   0.2% |
  diagonalize:                              31.107    31.107   1.6% ||
  rotate_psi:                                5.598     5.598   0.3% |
 Density:                                  183.726     0.003   0.0% |
  Atomic density matrices:                   0.257     0.257   0.0% |
  Mix:                                      29.049    29.049   1.5% ||
  Multipole moments:                         0.030     0.030   0.0% |
  Pseudo density:                          154.387   154.384   8.1% |--|
   Symmetrize density:                       0.003     0.003   0.0% |
 Hamiltonian:                              185.335     0.909   0.0% |
  Atomic:                                   31.692     0.137   0.0% |
   XC Correction:                           31.556    31.556   1.7% ||
  Calculate atomic Hamiltonians:            11.185    11.185   0.6% |
  Communicate:                               0.001     0.001   0.0% |
  Poisson:                                   0.219     0.219   0.0% |
  XC 3D grid:                              141.329   141.329   7.4% |--|
 Orthonormalize:                             1.973     0.008   0.0% |
  calc_s_matrix:                             0.363     0.363   0.0% |
  inverse-cholesky:                          0.018     0.018   0.0% |
  projections:                               1.477     1.477   0.1% |
  rotate_psi_s:                              0.107     0.107   0.0% |
Set symmetry:                                0.000     0.000   0.0% |
Other:                                       6.418     6.418   0.3% |
-------------------------------------------------------------------
Total:                                              1898.283 100.0%

Memory usage: 1.06 GiB
Date: Tue Sep  2 02:32:51 2025
