
  ___ ___ ___ _ _ _  
 |   |   |_  | | | | 
 | | | | | . | | | | 
 |__ |  _|___|_____|  24.6.0
 |___|_|             

User:   ajam@DESKTOP-5QB3SQI
Date:   Tue Sep  2 01:38:55 2025
Arch:   x86_64
Pid:    124083
CWD:    /mnt/c/Users/Aidan/Documents/GitHub/MDpractice/Aidan's Folder/TBG Project
Python: 3.11.13
gpaw:   /home/ajam/miniconda3/envs/gpaw/lib/python3.11/site-packages/gpaw
_gpaw:  /home/ajam/miniconda3/envs/gpaw/lib/python3.11/site-packages/
        _gpaw.cpython-311-x86_64-linux-gnu.so
ase:    /home/ajam/miniconda3/envs/gpaw/lib/python3.11/site-packages/ase (version 3.25.0)
numpy:  /home/ajam/miniconda3/envs/gpaw/lib/python3.11/site-packages/numpy (version 1.26.4)
scipy:  /home/ajam/miniconda3/envs/gpaw/lib/python3.11/site-packages/scipy (version 1.16.0)
libxc:  6.2.2
units:  Angstrom and eV
cores: 1
OpenMP: True
OMP_NUM_THREADS: 1

Input parameters:
  basis: dzp
  convergence: {energy: 0.0002}
  kpts: {density: 0.5,
         gamma: True}
  mode: lcao
  nbands: 110%
  occupations: {fixmagmom: False,
                name: fermi-dirac,
                width: 0.05}
  xc: PBE

System changes: positions, numbers, cell, pbc, initial_charges, initial_magmoms 

Initialize ...

species:
  C:
    name: Carbon
    id: 4aa54d4b901d75f77cc0ea3eec22967b
    Z: 6.0
    valence: 4
    core: 2
    charge: 0.0
    file: /home/ajam/miniconda3/envs/gpaw/share/gpaw/C.PBE.gz
    compensation charges: {type: gauss,
                           rc: 0.20,
                           lmax: 2}
    cutoffs: {filter: 1.14,
              core: 1.14}
    projectors:
      #              energy  rcut
      - 2s(2.00)   -13.751   0.635
      - 2p(2.00)    -5.284   0.635
      -  s          13.461   0.635
      -  p          21.927   0.635
      -  d           0.000   0.635
  
    # LCAO basis set for C:
    #   Name: dzp
    #   File: /home/ajam/miniconda3/envs/gpaw/share/gpaw/C.dzp.basis.gz
    #   Number of radial functions: 5
    #   Number of spherical harmonics: 13
    #     l=0, rc=5.5469 Bohr: 2s-sz confined orbital
    #     l=1, rc=6.6719 Bohr: 2p-sz confined orbital
    #     l=0, rc=3.0312 Bohr: 2s-dz split-valence wave
    #     l=1, rc=3.7500 Bohr: 2p-dz split-valence wave
    #     l=2, rc=6.6719 Bohr: d-type Gaussian polarization
    #   Number of RI-basis functions 0

Reference energy: -22607.818540  # eV

Spin-paired calculation

Convergence criteria:
 Maximum [total energy] change in last 3 cyles: 0.0002 eV / valence electron
 Maximum integral of absolute [dens]ity change: 0.0001 electrons / valence electron
 Maximum integral of absolute [eigenst]ate change: 4e-08 eV^2 / valence electron
 Maximum number of scf [iter]ations: 333
 (Square brackets indicate name in SCF output, whereas a 'c' in
 the SCF output indicates the quantity has converged.)

Symmetries present (total): 1

  ( 1  0  0)
  ( 0  1  0)
  ( 0  0  1)

3 k-points: 3 x 1 x 1 Monkhorst-Pack grid
2 k-points in the irreducible part of the Brillouin zone
       k-points in crystal coordinates                weights
   0:     0.00000000    0.00000000    0.00000000          1/3
   1:     0.33333333    0.00000000    0.00000000          2/3

Wave functions: LCAO
  Diagonalizer: Serial LAPACK
  Atomic Correction: dense with blas
  Data-type: complex
 

Occupation numbers: Fermi-Dirac:
  width: 0.0500  # eV
 

Eigensolver
   LCAO using direct dense diagonalizer 

Densities:
  Coarse grid: 8*16*120 grid
  Fine grid: 16*32*240 grid
  Total Charge: 0.000000 

Density mixing:
  Method: separate
  Backend: pulay
  Linear mixing parameter: 0.05
  old densities: 5
  Damping of long wavelength oscillations: 50 

Hamiltonian:
  XC and Coulomb potentials evaluated on a 16*32*240 grid
  Using the PBE Exchange-Correlation functional
  Interpolation: tri-quintic (5. degree polynomial)
  Poisson solver: FastPoissonSolver using
    Stencil: 8*3+1=25 point O(h^6) finite-difference Laplacian
    FFT axes: [0, 1]
    FST axes: [2]
 

XC parameters: PBE with 2 nearest neighbor stencil

Memory estimate:
  Process memory now: 175.09 MiB
  Calculator: 18.69 MiB
    Density: 6.02 MiB
      Arrays: 3.03 MiB
      Localized functions: 1.83 MiB
      Mixer: 1.16 MiB
    Hamiltonian: 2.13 MiB
      Arrays: 1.98 MiB
      XC: 0.00 MiB
      Poisson: 0.00 MiB
      vbar: 0.15 MiB
    Wavefunctions: 10.54 MiB
      C [qnM]: 0.43 MiB
      S, T [2 x qmm]: 4.99 MiB
      P [aqMi]: 0.16 MiB
      BasisFunctions: 4.97 MiB
      Eigensolver: 0.00 MiB

Total number of cores used: 1

Number of atoms: 22
Number of atomic orbitals: 286
Number of bands in calculation: 49
Number of valence electrons: 88
Bands to converge: occupied

... initialized

Initializing position-dependent things.

Density initialized from atomic densities


Positions:
   0 C      0.000000    0.000000   -1.675000    ( 0.0000,  0.0000,  0.0000)
   1 C      9.840000  -14.202817   -1.675000    ( 0.0000,  0.0000,  0.0000)
   2 C      9.840000  -12.782535   -1.675000    ( 0.0000,  0.0000,  0.0000)
   3 C     19.680000  -26.985352   -1.675000    ( 0.0000,  0.0000,  0.0000)
   4 C     12.300000  -17.043380   -1.675000    ( 0.0000,  0.0000,  0.0000)
   5 C      6.150000   -7.811549   -1.675000    ( 0.0000,  0.0000,  0.0000)
   6 C     14.760000  -21.304225   -1.675000    ( 0.0000,  0.0000,  0.0000)
   7 C      8.610000  -12.072394   -1.675000    ( 0.0000,  0.0000,  0.0000)
   8 C      8.610000  -10.652112   -1.675000    ( 0.0000,  0.0000,  0.0000)
   9 C     18.450000  -24.854929   -1.675000    ( 0.0000,  0.0000,  0.0000)
  10 C     11.070000  -14.912957   -1.675000    ( 0.0000,  0.0000,  0.0000)
  11 C      4.920000   -5.681127   -1.675000    ( 0.0000,  0.0000,  0.0000)
  12 C     13.530000  -19.173802   -1.675000    ( 0.0000,  0.0000,  0.0000)
  13 C      7.380000   -9.941972   -1.675000    ( 0.0000,  0.0000,  0.0000)
  14 C      0.000000    0.000000    1.675000    ( 0.0000,  0.0000,  0.0000)
  15 C      9.835254  -14.194662    1.675000    ( 0.0000,  0.0000,  0.0000)
  16 C      9.825822  -12.774409    1.675000    ( 0.0000,  0.0000,  0.0000)
  17 C     19.661077  -26.969072    1.675000    ( 0.0000,  0.0000,  0.0000)
  18 C     12.271645  -17.027128    1.675000    ( 0.0000,  0.0000,  0.0000)
  19 C      6.116899   -7.787143    1.675000    ( 0.0000,  0.0000,  0.0000)
  20 C     14.717467  -21.279847    1.675000    ( 0.0000,  0.0000,  0.0000)
  21 C      8.562721  -12.039862    1.675000    ( 0.0000,  0.0000,  0.0000)

Unit cell:
           periodic     x           y           z      points  spacing
  1. axis:    yes    7.380000   -8.521690    0.000000     8     0.1616
  2. axis:    yes   15.990000  -23.434647    0.000000    16     0.2034
  3. axis:    no     0.000000    0.000000   24.000000   120     0.2000

  Lengths:  11.273136  28.370104  24.000000
  Angles:   90.000000  90.000000   6.586776

Effective grid spacing dv^(1/3) = 0.3856

     iter     time        total  log10-change:
                         energy   eigst   dens
iter:   1 01:38:56 -2111.831041        c
iter:   2 01:38:56 -2117.098234        c -0.50
iter:   3 01:38:57 -2117.978544        c -0.52
iter:   4 01:38:57 -2112.287887        c -0.60
iter:   5 01:38:57 -2111.587333        c -0.72
iter:   6 01:38:58 -2111.050946        c -0.81
iter:   7 01:38:58 -2111.734316        c -0.92
iter:   8 01:38:59 -2111.748979        c -0.95
iter:   9 01:38:59 -2112.500023        c -1.01
iter:  10 01:38:59 -2113.519663        c -1.07
iter:  11 01:39:01 -2115.419441        c -1.13
iter:  12 01:39:01 -2116.411667        c -1.22
iter:  13 01:39:01 -2118.246516        c -1.25
iter:  14 01:39:02 -2119.252418        c -1.32
iter:  15 01:39:02 -2119.712459        c -1.34
iter:  16 01:39:02 -2120.560597        c -1.39
iter:  17 01:39:03 -2121.179060        c -1.46
iter:  18 01:39:03 -2121.416789        c -1.51
iter:  19 01:39:04 -2121.765725        c -1.53
iter:  20 01:39:04 -2122.315021        c -1.56
iter:  21 01:39:04 -2122.217984        c -1.58
iter:  22 01:39:05 -2122.055222        c -1.59
iter:  23 01:39:05 -2122.066768        c -1.58
iter:  24 01:39:06 -2122.129853        c -1.60
iter:  25 01:39:06 -2122.607485        c -1.61
iter:  26 01:39:06 -2122.749711        c -1.62
iter:  27 01:39:07 -2122.757119        c -1.62
iter:  28 01:39:07 -2122.619049        c -1.65
iter:  29 01:39:08 -2122.679701        c -1.67
iter:  30 01:39:08 -2123.072744        c -1.69
iter:  31 01:39:08 -2123.157935        c -1.69
iter:  32 01:39:09 -2123.430513        c -1.70
iter:  33 01:39:09 -2123.570018        c -1.70
iter:  34 01:39:10 -2123.190671        c -1.71
iter:  35 01:39:10 -2123.303402        c -1.70
iter:  36 01:39:11 -2123.303588        c -1.71
iter:  37 01:39:11 -2123.213493        c -1.74
iter:  38 01:39:11 -2123.056557        c -1.74
iter:  39 01:39:12 -2123.103997        c -1.76
iter:  40 01:39:12 -2123.250308        c -1.76
iter:  41 01:39:13 -2124.038445        c -1.78
iter:  42 01:39:13 -2123.973053        c -1.76
iter:  43 01:39:13 -2123.721341        c -1.78
iter:  44 01:39:14 -2123.916950        c -1.80
iter:  45 01:39:14 -2123.392976        c -1.77
iter:  46 01:39:15 -2123.255304        c -1.83
iter:  47 01:39:15 -2123.939560        c -1.82
iter:  48 01:39:15 -2123.661289        c -1.75
iter:  49 01:39:16 -2123.899493        c -1.77
iter:  50 01:39:16 -2123.982401        c -1.73
iter:  51 01:39:17 -2123.599334        c -1.77
iter:  52 01:39:17 -2123.423582        c -1.84
iter:  53 01:39:17 -2123.274332        c -1.85
iter:  54 01:39:18 -2123.343124        c -1.83
iter:  55 01:39:18 -2123.191829        c -1.81
iter:  56 01:39:18 -2123.087559        c -1.78
iter:  57 01:39:19 -2122.989314        c -1.80
iter:  58 01:39:19 -2122.946505        c -1.83
iter:  59 01:39:20 -2122.908857        c -1.83
iter:  60 01:39:20 -2122.699513        c -1.84
iter:  61 01:39:20 -2122.932850        c -1.80
iter:  62 01:39:21 -2123.016530        c -1.84
iter:  63 01:39:21 -2122.985514        c -1.84
iter:  64 01:39:22 -2123.123647        c -1.83
iter:  65 01:39:22 -2123.246554        c -1.85
iter:  66 01:39:22 -2123.035715        c -1.84
iter:  67 01:39:23 -2123.095416        c -1.84
iter:  68 01:39:23 -2123.088749        c -1.85
iter:  69 01:39:24 -2123.083614c       c -1.85
iter:  70 01:39:24 -2123.050248        c -1.84
iter:  71 01:39:24 -2123.344168        c -1.84
iter:  72 01:39:25 -2123.320829        c -1.85
iter:  73 01:39:25 -2123.171259        c -1.83
iter:  74 01:39:26 -2123.236989        c -1.85
iter:  75 01:39:27 -2123.544159        c -1.86
iter:  76 01:39:27 -2123.007720        c -1.81
iter:  77 01:39:27 -2123.130630        c -1.83
iter:  78 01:39:28 -2123.107860        c -1.85
iter:  79 01:39:28 -2123.113870        c -1.85
iter:  80 01:39:30 -2123.138043        c -1.85
iter:  81 01:39:30 -2123.107249        c -1.81
iter:  82 01:39:30 -2123.431169        c -1.81
iter:  83 01:39:31 -2123.071149        c -1.79
iter:  84 01:39:31 -2122.913299        c -1.83
iter:  85 01:39:32 -2122.924549        c -1.81
iter:  86 01:39:32 -2122.941012        c -1.81
iter:  87 01:39:33 -2122.897306        c -1.78
iter:  88 01:39:34 -2123.050171        c -1.78
iter:  89 01:39:34 -2123.056240        c -1.77
iter:  90 01:39:35 -2123.034478        c -1.77
iter:  91 01:39:35 -2123.189825        c -1.84
iter:  92 01:39:35 -2123.109686        c -1.85
iter:  93 01:39:36 -2122.794493        c -1.81
iter:  94 01:39:36 -2123.161515        c -1.80
iter:  95 01:39:36 -2122.999632        c -1.79
iter:  96 01:39:37 -2122.762354        c -1.80
iter:  97 01:39:37 -2122.715502        c -1.82
iter:  98 01:39:38 -2122.912155        c -1.80
iter:  99 01:39:38 -2123.103886        c -1.84
iter: 100 01:39:39 -2122.987344        c -1.84
iter: 101 01:39:39 -2122.922869        c -1.82
iter: 102 01:39:39 -2122.899934        c -1.84
iter: 103 01:39:40 -2122.787909        c -1.85
iter: 104 01:39:40 -2123.007015        c -1.84
iter: 105 01:39:41 -2123.564229        c -1.82
iter: 106 01:39:41 -2123.588958        c -1.74
iter: 107 01:39:41 -2123.454699        c -1.76
iter: 108 01:39:42 -2122.816026        c -1.78
iter: 109 01:39:42 -2122.975689        c -1.79
iter: 110 01:39:43 -2122.885246        c -1.77
iter: 111 01:39:43 -2122.680637        c -1.76
iter: 112 01:39:43 -2122.664025        c -1.81
iter: 113 01:39:44 -2122.725459        c -1.82
iter: 114 01:39:44 -2123.024821        c -1.83
iter: 115 01:39:45 -2122.843385        c -1.78
iter: 116 01:39:45 -2122.822160        c -1.75
iter: 117 01:39:45 -2123.196406        c -1.80
iter: 118 01:39:46 -2123.152319        c -1.82
iter: 119 01:39:46 -2123.168816        c -1.80
iter: 120 01:39:47 -2123.239873        c -1.81
iter: 121 01:39:47 -2123.377911        c -1.84
iter: 122 01:39:47 -2122.999322        c -1.84
iter: 123 01:39:48 -2123.541440        c -1.81
iter: 124 01:39:48 -2123.208571        c -1.80
iter: 125 01:39:49 -2123.316191        c -1.79
iter: 126 01:39:49 -2123.195671        c -1.83
iter: 127 01:39:49 -2122.878675        c -1.81
iter: 128 01:39:50 -2123.999155        c -1.75
iter: 129 01:39:50 -2123.570963        c -1.74
iter: 130 01:39:51 -2123.746990        c -1.82
iter: 131 01:39:51 -2123.639913        c -1.80
iter: 132 01:39:51 -2123.569269        c -1.75
iter: 133 01:39:52 -2123.550389        c -1.82
iter: 134 01:39:52 -2123.580528        c -1.81
iter: 135 01:39:53 -2124.388399        c -1.83
iter: 136 01:39:53 -2124.281300        c -1.76
iter: 137 01:39:54 -2123.970223        c -1.84
iter: 138 01:39:54 -2123.979746        c -1.75
iter: 139 01:39:54 -2124.021850        c -1.73
iter: 140 01:39:55 -2124.082322        c -1.76
iter: 141 01:39:55 -2124.107761        c -1.81
iter: 142 01:39:56 -2123.923153        c -1.88
iter: 143 01:39:56 -2123.962687        c -1.88
iter: 144 01:39:56 -2124.057606        c -1.88
iter: 145 01:39:57 -2124.033159        c -1.85
iter: 146 01:39:57 -2124.067938        c -1.88
iter: 147 01:39:58 -2123.857834        c -1.90
iter: 148 01:39:58 -2123.693639        c -1.89
iter: 149 01:39:58 -2123.972646        c -1.85
iter: 150 01:39:59 -2123.984954        c -1.87
iter: 151 01:39:59 -2123.785611        c -1.88
iter: 152 01:40:00 -2124.075327        c -1.90
iter: 153 01:40:00 -2124.093038        c -1.92
iter: 154 01:40:00 -2123.627474        c -1.92
iter: 155 01:40:01 -2123.456163        c -1.91
iter: 156 01:40:01 -2124.214884        c -1.88
iter: 157 01:40:02 -2123.687275        c -1.89
iter: 158 01:40:02 -2123.646870        c -1.92
iter: 159 01:40:02 -2123.635265        c -1.90
iter: 160 01:40:03 -2123.573177        c -1.92
iter: 161 01:40:03 -2123.485059        c -1.90
iter: 162 01:40:04 -2123.996710        c -1.86
iter: 163 01:40:04 -2123.844362        c -1.95
iter: 164 01:40:05 -2123.749198        c -1.95
iter: 165 01:40:05 -2123.777124        c -1.92
iter: 166 01:40:05 -2123.725511        c -1.93
iter: 167 01:40:07 -2123.593866        c -1.92
iter: 168 01:40:07 -2124.256960        c -1.91
iter: 169 01:40:07 -2123.597942        c -1.91
iter: 170 01:40:08 -2123.658421        c -1.82
iter: 171 01:40:08 -2123.742846        c -1.91
iter: 172 01:40:09 -2123.761130        c -1.92
iter: 173 01:40:09 -2123.962827        c -1.84
iter: 174 01:40:09 -2124.193316        c -1.90
iter: 175 01:40:10 -2123.863198        c -1.93
iter: 176 01:40:10 -2123.729487        c -1.86
iter: 177 01:40:11 -2123.973455        c -1.88
iter: 178 01:40:11 -2123.757458        c -1.90
iter: 179 01:40:11 -2123.571131        c -1.89
iter: 180 01:40:12 -2124.689200        c -1.87
iter: 181 01:40:12 -2123.541615        c -1.78
iter: 182 01:40:13 -2123.615620        c -1.86
iter: 183 01:40:13 -2123.492773        c -1.76
iter: 184 01:40:13 -2123.417266        c -1.87
iter: 185 01:40:14 -2123.365797        c -1.84
iter: 186 01:40:14 -2123.704945        c -1.87
iter: 187 01:40:15 -2123.802649        c -1.88
iter: 188 01:40:15 -2124.216522        c -1.88
iter: 189 01:40:15 -2123.465018        c -1.86
iter: 190 01:40:16 -2123.480233        c -1.80
iter: 191 01:40:16 -2123.648620        c -1.74
iter: 192 01:40:17 -2123.903919        c -1.83
iter: 193 01:40:17 -2126.449921        c -1.82
iter: 194 01:40:17 -2123.845109        c -1.62
iter: 195 01:40:18 -2124.430225        c -1.80
iter: 196 01:40:18 -2123.529255        c -1.81
iter: 197 01:40:19 -2123.537211        c -1.91
iter: 198 01:40:19 -2123.580965        c -1.83
iter: 199 01:40:19 -2123.634385        c -1.79
iter: 200 01:40:20 -2123.547161        c -1.75
iter: 201 01:40:20 -2123.741062        c -1.83
iter: 202 01:40:21 -2123.737109        c -1.94
iter: 203 01:40:21 -2124.013490        c -1.94
iter: 204 01:40:21 -2123.700408        c -1.91
iter: 205 01:40:22 -2124.083610        c -1.93
iter: 206 01:40:22 -2123.722993        c -1.89
iter: 207 01:40:22 -2124.607855        c -1.87
iter: 208 01:40:23 -2124.361580        c -1.83
iter: 209 01:40:23 -2123.977694        c -1.86
iter: 210 01:40:24 -2124.210481        c -1.88
iter: 211 01:40:24 -2124.536525        c -1.79
iter: 212 01:40:24 -2124.721111        c -1.86
iter: 213 01:40:25 -2125.045982        c -1.81
iter: 214 01:40:25 -2124.230378        c -1.80
iter: 215 01:40:26 -2124.408636        c -1.83
iter: 216 01:40:26 -2124.275666        c -1.79
iter: 217 01:40:26 -2124.237555        c -1.75
iter: 218 01:40:27 -2124.468385        c -1.84
iter: 219 01:40:27 -2125.266393        c -1.82
iter: 220 01:40:28 -2125.078361        c -1.76
iter: 221 01:40:28 -2124.109523        c -1.55
iter: 222 01:40:28 -2125.579139        c -1.88
iter: 223 01:40:29 -2124.593208        c -1.71
iter: 224 01:40:29 -2125.067734        c -1.85
iter: 225 01:40:30 -2125.040103        c -1.79
iter: 226 01:40:30 -2123.983039        c -1.79
iter: 227 01:40:30 -2123.916483        c -1.92
iter: 228 01:40:31 -2123.877014        c -1.80
iter: 229 01:40:31 -2123.891885        c -1.79
iter: 230 01:40:32 -2123.894190c       c -1.80
iter: 231 01:40:32 -2125.630165        c -1.85
iter: 232 01:40:32 -2124.309603        c -1.70
iter: 233 01:40:33 -2124.042761        c -1.63
iter: 234 01:40:33 -2123.708202        c -1.68
iter: 235 01:40:34 -2123.776561        c -1.87
iter: 236 01:40:34 -2125.127892        c -1.89
iter: 237 01:40:34 -2123.751676        c -1.68
iter: 238 01:40:35 -2124.196100        c -1.82
iter: 239 01:40:35 -2124.558929        c -1.91
iter: 240 01:40:35 -2123.830144        c -1.85
iter: 241 01:40:36 -2123.878667        c -1.87
iter: 242 01:40:36 -2123.971417        c -1.90
iter: 243 01:40:37 -2125.340518        c -1.97
iter: 244 01:40:37 -2125.488317        c -1.70
iter: 245 01:40:38 -2127.000861        c -1.68
iter: 246 01:40:38 -2123.801729        c -1.54
iter: 247 01:40:38 -2123.990689        c -1.97
iter: 248 01:40:40 -2123.693061        c -1.94
iter: 249 01:40:40 -2124.343550        c -1.96
iter: 250 01:40:40 -2123.954010        c -1.83
iter: 251 01:40:41 -2124.048534        c -1.96
iter: 252 01:40:41 -2123.881846        c -1.95
iter: 253 01:40:42 -2123.782826        c -1.84
iter: 254 01:40:42 -2123.908490        c -1.85
iter: 255 01:40:42 -2124.852701        c -2.04
iter: 256 01:40:43 -2123.763247        c -1.83
iter: 257 01:40:43 -2124.609886        c -2.00
iter: 258 01:40:44 -2124.956352        c -1.86
iter: 259 01:40:44 -2123.825926        c -1.81
iter: 260 01:40:44 -2123.800222        c -1.97
iter: 261 01:40:45 -2125.933167        c -1.86
iter: 262 01:40:45 -2125.520576        c -1.69
iter: 263 01:40:45 -2124.045459        c -1.70
iter: 264 01:40:46 -2124.868517        c -1.91
iter: 265 01:40:46 -2123.945278        c -1.76
iter: 266 01:40:47 -2123.776964        c -2.01
iter: 267 01:40:47 -2123.966194        c -1.95
iter: 268 01:40:47 -2123.837780        c -1.96
iter: 269 01:40:48 -2123.840678        c -1.98
iter: 270 01:40:48 -2124.028777        c -1.91
iter: 271 01:40:49 -2123.953010        c -2.10
iter: 272 01:40:49 -2124.737156        c -2.13
iter: 273 01:40:49 -2123.832768        c -1.85
iter: 274 01:40:50 -2123.973846        c -1.98
iter: 275 01:40:50 -2123.772048        c -1.70
iter: 276 01:40:51 -2123.810320        c -1.93
iter: 277 01:40:51 -2123.919269        c -1.89
iter: 278 01:40:51 -2124.000527        c -1.84
iter: 279 01:40:52 -2124.046344        c -2.06
iter: 280 01:40:52 -2124.105625        c -2.14
iter: 281 01:40:53 -2124.444027        c -2.09
iter: 282 01:40:53 -2124.632529        c -1.97
iter: 283 01:40:53 -2123.954495        c -1.93
iter: 284 01:40:54 -2123.947583        c -2.04
iter: 285 01:40:54 -2123.956587c       c -1.94
iter: 286 01:40:54 -2123.950326c       c -1.97
iter: 287 01:40:55 -2124.013333        c -1.97
iter: 288 01:40:55 -2125.970825        c -2.00
iter: 289 01:40:56 -2124.078403        c -1.76
iter: 290 01:40:56 -2124.531147        c -1.95
iter: 291 01:40:56 -2123.990900        c -1.83
iter: 292 01:40:57 -2124.057272        c -1.81
iter: 293 01:40:57 -2124.038667        c -1.77
iter: 294 01:40:58 -2124.550055        c -1.75
iter: 295 01:40:58 -2126.858956        c -1.90
iter: 296 01:40:58 -2125.714408        c -1.55
iter: 297 01:40:59 -2124.398402        c -1.67
iter: 298 01:40:59 -2123.992795        c -1.99
iter: 299 01:41:00 -2123.910772        c -2.07
iter: 300 01:41:00 -2123.819471        c -2.02
iter: 301 01:41:00 -2123.890672        c -2.07
iter: 302 01:41:01 -2123.963026        c -1.92
iter: 303 01:41:01 -2124.856654        c -2.03
iter: 304 01:41:01 -2124.054790        c -1.82
iter: 305 01:41:02 -2123.986394        c -1.99
iter: 306 01:41:02 -2124.030752        c -1.98
iter: 307 01:41:03 -2124.009792        c -1.96
iter: 308 01:41:03 -2124.080920        c -1.86
iter: 309 01:41:04 -2124.773390        c -1.95
iter: 310 01:41:04 -2124.025143        c -1.87
iter: 311 01:41:04 -2124.432023        c -1.96
iter: 312 01:41:05 -2124.075934        c -1.83
iter: 313 01:41:05 -2124.145919        c -1.97
iter: 314 01:41:06 -2124.040133        c -1.79
iter: 315 01:41:06 -2126.354673        c -1.83
iter: 316 01:41:06 -2127.103005        c -1.59
iter: 317 01:41:07 -2126.113042        c -1.51
iter: 318 01:41:07 -2126.623450        c -1.57
iter: 319 01:41:07 -2124.527553        c -1.56
iter: 320 01:41:08 -2126.941805        c -1.68
iter: 321 01:41:08 -2127.062738        c -1.40
iter: 322 01:41:09 -2127.033555        c -1.38
iter: 323 01:41:09 -2123.750903        c -1.32
iter: 324 01:41:09 -2123.801273        c -1.92
iter: 325 01:41:10 -2124.927006        c -2.04
iter: 326 01:41:10 -2124.445210        c -1.87
iter: 327 01:41:11 -2124.340413        c -1.95
iter: 328 01:41:11 -2124.469756        c -1.99
iter: 329 01:41:11 -2123.886997        c -1.92
iter: 330 01:41:12 -2123.948371        c -2.01
iter: 331 01:41:13 -2123.929255        c -1.97
iter: 332 01:41:13 -2123.890523        c -2.02
iter: 333 01:41:14 -2123.931161        c -2.01

Did not converge!

Here are some tips:

1) Make sure the geometry and spin-state is physically sound.
2) Use less aggressive density mixing.
3) Solve the eigenvalue problem more accurately at each scf-step.
4) Use a smoother distribution function for the occupation numbers.
5) Try adding more empty states.
6) Use enough k-points.
7) Don't let your structure optimization algorithm take too large steps.
8) Solve the Poisson equation more accurately.
9) Better initial guess for the wave functions.

See details here:

    https://wiki.fysik.dtu.dk/gpaw/documentation/convergence.html


Timing:                              incl.     excl.
-----------------------------------------------------------
Basic WFS set positions:             0.000     0.000   0.0% |
Basis functions set positions:       0.038     0.038   0.0% |
LCAO WFS Initialize:                 0.200     0.006   0.0% |
 Hamiltonian:                        0.194     0.000   0.0% |
  Atomic:                            0.160     0.001   0.0% |
   XC Correction:                    0.159     0.159   0.1% |
  Calculate atomic Hamiltonians:     0.001     0.001   0.0% |
  Communicate:                       0.000     0.000   0.0% |
  Hartree integrate/restrict:        0.001     0.001   0.0% |
  Initialize Hamiltonian:            0.000     0.000   0.0% |
  Poisson:                           0.011     0.000   0.0% |
   Communicate from 1D:              0.002     0.002   0.0% |
   Communicate from 2D:              0.001     0.001   0.0% |
   Communicate to 1D:                0.001     0.001   0.0% |
   Communicate to 2D:                0.003     0.003   0.0% |
   FFT 1D:                           0.003     0.003   0.0% |
   FFT 2D:                           0.002     0.002   0.0% |
  XC 3D grid:                        0.020     0.020   0.0% |
  vbar:                              0.001     0.001   0.0% |
P tci:                               0.062     0.062   0.0% |
SCF-cycle:                         138.170     0.331   0.2% |
 Density:                           37.442     0.004   0.0% |
  Atomic density matrices:           0.498     0.498   0.4% |
  Mix:                               1.134     1.134   0.8% |
  Multipole moments:                 0.086     0.086   0.1% |
  Normalize:                         0.009     0.009   0.0% |
  Pseudo density:                   35.711     0.033   0.0% |
   Calculate density matrix:         0.353     0.353   0.3% |
   Construct density:               35.319    35.319  25.4% |---------|
   Symmetrize density:               0.005     0.005   0.0% |
 Hamiltonian:                       63.549     0.010   0.0% |
  Atomic:                           55.150     0.287   0.2% |
   XC Correction:                   54.863    54.863  39.5% |---------------|
  Calculate atomic Hamiltonians:     0.218     0.218   0.2% |
  Communicate:                       0.002     0.002   0.0% |
  Hartree integrate/restrict:        0.266     0.266   0.2% |
  Poisson:                           2.768     0.158   0.1% |
   Communicate from 1D:              0.312     0.312   0.2% |
   Communicate from 2D:              0.241     0.241   0.2% |
   Communicate to 1D:                0.218     0.218   0.2% |
   Communicate to 2D:                0.351     0.351   0.3% |
   FFT 1D:                           0.843     0.843   0.6% |
   FFT 2D:                           0.644     0.644   0.5% |
  XC 3D grid:                        5.017     5.017   3.6% ||
  vbar:                              0.118     0.118   0.1% |
 LCAO eigensolver:                  36.848     0.111   0.1% |
  Calculate projections:             0.347     0.347   0.3% |
  DenseAtomicCorrection:             2.824     2.824   2.0% ||
  Distribute overlap matrix:         0.188     0.188   0.1% |
  Orbital Layouts:                  13.246    13.246   9.5% |---|
  Potential matrix:                  9.630     9.630   6.9% |--|
  Sum over cells:                   10.502    10.502   7.6% |--|
ST tci:                              0.035     0.035   0.0% |
Set symmetry:                        0.000     0.000   0.0% |
TCI: Evaluate splines:               0.063     0.063   0.0% |
mktci:                               0.008     0.008   0.0% |
Other:                               0.208     0.208   0.1% |
-----------------------------------------------------------
Total:                                       138.784 100.0%

Memory usage: 247.31 MiB
Date: Tue Sep  2 01:41:14 2025
